
.Version 6.13.2 of ABINIT 
.(MPI version, prepared for a x86_64_linux_gnu4.6 computer) 

.Copyright (C) 1998-2014 ABINIT group . 
 ABINIT comes with ABSOLUTELY NO WARRANTY.
 It is free software, and you are welcome to redistribute it
 under certain conditions (GNU General Public License,
 see ~abinit/COPYING or http://www.gnu.org/copyleft/gpl.txt).

 ABINIT is a project of the Universite Catholique de Louvain,
 Corning Inc. and other collaborators, see ~abinit/doc/developers/contributors.txt .
 Please read ~abinit/doc/users/acknowledgments.html for suggested
 acknowledgments of the ABINIT effort.
 For more information, see http://www.abinit.org .

.Starting date : Thu  8 Mar 2012.
- ( at 15h 1 )
  
- input  file    -> tdfpt_04.in
- output file    -> tdfpt_04.outB
- root for input  files -> tdfpt_04.i
- root for output files -> tdfpt_04.o


 Symmetries : space group Pm m m (# 47); Bravais oP (primitive ortho.)
================================================================================
 Values of the parameters that define the memory need of the present run (RF).
   intxc =         0    iscf =         7 xclevel =         1  lmnmax =        18
   lnmax =         6   mband =       120  mffmem =         1   mgfft =       192
P  mkmem =         1  mkqmem =         1  mk1mem =         1 mpssoang=         3
     mpw =      8428  mqgrid =      9226   natom =        29    nfft =    172800
    nkpt =        16  nloalg =         4  nspden =         1 nspinor =         1
  nsppol =         1    nsym =         8  n1xccc =         1  ntypat =         3
  occopt =         7
================================================================================
P This job should need less than                     437.230 Mbytes of memory.
  Rough estimation (10% accuracy) of disk space for files :
  WF disk file :    246.916 Mbytes ; DEN or POT disk file :      1.320 Mbytes.
================================================================================

--------------------------------------------------------------------------------
------------- Echo of variables that govern the present computation ------------
--------------------------------------------------------------------------------
-
- outvars: echo of selected default values                                      
-   accesswff0 =  0 , fftalg0 =312 , wfoptalg0 = 10
-
- outvars: echo of global parameters not present in the input file              
-   nproc =   32
-
 -outvars: echo values of preprocessed input variables --------
            acell      7.5589045315E+00  7.5589045315E+00  5.2912331721E+01 Bohr
              amu      1.37327000E+02  4.78800000E+01  1.59994000E+01
             ecut      1.50000000E+01 Hartree
           irdwfk           1
             iscf           7
              ixc           7
              kpt      1.25000000E-01  1.25000000E-01  5.00000000E-01
                       3.75000000E-01  1.25000000E-01  5.00000000E-01
                      -3.75000000E-01  1.25000000E-01  5.00000000E-01
                      -1.25000000E-01  1.25000000E-01  5.00000000E-01
                       1.25000000E-01  3.75000000E-01  5.00000000E-01
                       3.75000000E-01  3.75000000E-01  5.00000000E-01
                      -3.75000000E-01  3.75000000E-01  5.00000000E-01
                      -1.25000000E-01  3.75000000E-01  5.00000000E-01
                       1.25000000E-01 -3.75000000E-01  5.00000000E-01
                       3.75000000E-01 -3.75000000E-01  5.00000000E-01
                      -3.75000000E-01 -3.75000000E-01  5.00000000E-01
                      -1.25000000E-01 -3.75000000E-01  5.00000000E-01
                       1.25000000E-01 -1.25000000E-01  5.00000000E-01
                       3.75000000E-01 -1.25000000E-01  5.00000000E-01
                      -3.75000000E-01 -1.25000000E-01  5.00000000E-01
                      -1.25000000E-01 -1.25000000E-01  5.00000000E-01
          kptrlen      3.02356181E+01
           kptopt           3
         kptrlatt      4  0  0   0  4  0   0  0  1
P           mkmem           1
P          mkqmem           1
P          mk1mem           1
            natom          29
            nband         120
           nbdbuf           2
            ngfft          30      30     192
          ngfftdg          40      40     270
             nkpt          16
             nqpt           1
            nstep          18
             nsym           8
           ntypat           3
              occ      2.000000  2.000000  2.000000  2.000000  2.000000  2.000000
                       2.000000  2.000000  2.000000  2.000000  2.000000  2.000000
                       2.000000  2.000000  2.000000  2.000000  2.000000  2.000000
                       2.000000  2.000000  2.000000  2.000000  2.000000  2.000000
                       2.000000  2.000000  2.000000  2.000000  2.000000  2.000000
                       2.000000  2.000000  2.000000  2.000000  2.000000  2.000000
                       2.000000  2.000000  2.000000  2.000000  2.000000  2.000000
                       2.000000  2.000000  2.000000  2.000000  2.000000  2.000000
                       2.000000  2.000000  2.000000  2.000000  2.000000  2.000000
                       2.000000  2.000000  2.000000  2.000000  2.000000  2.000000
                       2.000000  2.000000  2.000000  2.000000  2.000000  2.000000
                       2.000000  2.000000  2.000000  2.000000  2.000000  2.000000
                       2.000000  2.000000  2.000000  2.000000  2.000000  2.000000
                       2.000000  2.000000  2.000000  2.000000  2.000000  2.000000
                       2.000000  2.000000  2.000000  2.000000  2.000000  2.000000
                       2.000000  2.000000  2.000000  2.000000  2.000000  2.000000
                       2.000000  2.000000  2.000000  2.000000  2.000000  2.000000
                       2.000000  2.000000  2.000000  2.000000  2.000000  2.000000
                       2.000000  2.000000  2.000000  2.000000  2.000000  2.000000
                       2.000000  2.000000  0.000000  0.000000  0.000000  0.000000
                       2.000000  2.000000  2.000000  2.000000  2.000000  2.000000
                       2.000000  2.000000  2.000000  2.000000  2.000000  2.000000
                       2.000000  2.000000  2.000000  2.000000  2.000000  2.000000
                       2.000000  2.000000  2.000000  2.000000  2.000000  2.000000
                       2.000000  2.000000  2.000000  2.000000  2.000000  2.000000
                       2.000000  2.000000  2.000000  2.000000  2.000000  2.000000
                       2.000000  2.000000  2.000000  2.000000  2.000000  2.000000
                       2.000000  2.000000  2.000000  2.000000  2.000000  2.000000
                       2.000000  2.000000  2.000000  2.000000  2.000000  2.000000
                       2.000000  2.000000  2.000000  2.000000  2.000000  2.000000
                       2.000000  2.000000  2.000000  2.000000  2.000000  2.000000
                       2.000000  2.000000  2.000000  2.000000  2.000000  2.000000
                       2.000000  2.000000  2.000000  2.000000  2.000000  2.000000
                       2.000000  2.000000  2.000000  2.000000  2.000000  2.000000
                       2.000000  2.000000  2.000000  2.000000  2.000000  2.000000
                       2.000000  2.000000  2.000000  2.000000  2.000000  2.000000
                       2.000000  2.000000  2.000000  2.000000  2.000000  2.000000
                       2.000000  2.000000  2.000000  2.000000  2.000000  2.000000
                       2.000000  2.000000  2.000000  2.000000  2.000000  2.000000
                       2.000000  2.000000  0.000000  0.000000  0.000000  0.000000
                       2.000000  2.000000  2.000000  2.000000  2.000000  2.000000
                       2.000000  2.000000  2.000000  2.000000  2.000000  2.000000
                       2.000000  2.000000  2.000000  2.000000  2.000000  2.000000
                       2.000000  2.000000  2.000000  2.000000  2.000000  2.000000
                       2.000000  2.000000  2.000000  2.000000  2.000000  2.000000
                       2.000000  2.000000  2.000000  2.000000  2.000000  2.000000
                       2.000000  2.000000  2.000000  2.000000  2.000000  2.000000
                       2.000000  2.000000  2.000000  2.000000  2.000000  2.000000
                       2.000000  2.000000  2.000000  2.000000  2.000000  2.000000
                       2.000000  2.000000  2.000000  2.000000  2.000000  2.000000
                       2.000000  2.000000  2.000000  2.000000  2.000000  2.000000
                       2.000000  2.000000  2.000000  2.000000  2.000000  2.000000
                       2.000000  2.000000  2.000000  2.000000  2.000000  2.000000
                       2.000000  2.000000  2.000000  2.000000  2.000000  2.000000
                       2.000000  2.000000  2.000000  2.000000  2.000000  2.000000
                       2.000000  2.000000  2.000000  2.000000  2.000000  2.000000
                       2.000000  2.000000  2.000000  2.000000  2.000000  2.000000
                       2.000000  2.000000  2.000000  2.000000  2.000000  2.000000
                       2.000000  2.000000  2.000000  2.000000  2.000000  2.000000
                       2.000000  2.000000  0.000000  0.000000  0.000000  0.000000
                       2.000000  2.000000  2.000000  2.000000  2.000000  2.000000
                       2.000000  2.000000  2.000000  2.000000  2.000000  2.000000
                       2.000000  2.000000  2.000000  2.000000  2.000000  2.000000
                       2.000000  2.000000  2.000000  2.000000  2.000000  2.000000
                       2.000000  2.000000  2.000000  2.000000  2.000000  2.000000
                       2.000000  2.000000  2.000000  2.000000  2.000000  2.000000
                       2.000000  2.000000  2.000000  2.000000  2.000000  2.000000
                       2.000000  2.000000  2.000000  2.000000  2.000000  2.000000
                       2.000000  2.000000  2.000000  2.000000  2.000000  2.000000
                       2.000000  2.000000  2.000000  2.000000  2.000000  2.000000
                       2.000000  2.000000  2.000000  2.000000  2.000000  2.000000
                       2.000000  2.000000  2.000000  2.000000  2.000000  2.000000
                       2.000000  2.000000  2.000000  2.000000  2.000000  2.000000
                       2.000000  2.000000  2.000000  2.000000  2.000000  2.000000
                       2.000000  2.000000  2.000000  2.000000  2.000000  2.000000
                       2.000000  2.000000  2.000000  2.000000  2.000000  2.000000
                       2.000000  2.000000  2.000000  2.000000  2.000000  2.000000
                       2.000000  2.000000  2.000000  2.000000  2.000000  2.000000
                       2.000000  2.000000  2.000000  2.000000  2.000000  2.000000
                       2.000000  2.000000  0.000000  0.000000  0.000000  0.000000
                       2.000000  2.000000  2.000000  2.000000  2.000000  2.000000
                       2.000000  2.000000  2.000000  2.000000  2.000000  2.000000
                       2.000000  2.000000  2.000000  2.000000  2.000000  2.000000
                       2.000000  2.000000  2.000000  2.000000  2.000000  2.000000
                       2.000000  2.000000  2.000000  2.000000  2.000000  2.000000
                       2.000000  2.000000  2.000000  2.000000  2.000000  2.000000
                       2.000000  2.000000  2.000000  2.000000  2.000000  2.000000
                       2.000000  2.000000  2.000000  2.000000  2.000000  2.000000
                       2.000000  2.000000  2.000000  2.000000  2.000000  2.000000
                       2.000000  2.000000  2.000000  2.000000  2.000000  2.000000
                       2.000000  2.000000  2.000000  2.000000  2.000000  2.000000
                       2.000000  2.000000  2.000000  2.000000  2.000000  2.000000
                       2.000000  2.000000  2.000000  2.000000  2.000000  2.000000
                       2.000000  2.000000  2.000000  2.000000  2.000000  2.000000
                       2.000000  2.000000  2.000000  2.000000  2.000000  2.000000
                       2.000000  2.000000  2.000000  2.000000  2.000000  2.000000
                       2.000000  2.000000  2.000000  2.000000  2.000000  2.000000
                       2.000000  2.000000  2.000000  2.000000  2.000000  2.000000
                       2.000000  2.000000  2.000000  2.000000  2.000000  2.000000
                       2.000000  2.000000  0.000000  0.000000  0.000000  0.000000
                       2.000000  2.000000  2.000000  2.000000  2.000000  2.000000
                       2.000000  2.000000  2.000000  2.000000  2.000000  2.000000
                       2.000000  2.000000  2.000000  2.000000  2.000000  2.000000
                       2.000000  2.000000  2.000000  2.000000  2.000000  2.000000
                       2.000000  2.000000  2.000000  2.000000  2.000000  2.000000
                       2.000000  2.000000  2.000000  2.000000  2.000000  2.000000
                       2.000000  2.000000  2.000000  2.000000  2.000000  2.000000
                       2.000000  2.000000  2.000000  2.000000  2.000000  2.000000
                       2.000000  2.000000  2.000000  2.000000  2.000000  2.000000
                       2.000000  2.000000  2.000000  2.000000  2.000000  2.000000
                       2.000000  2.000000  2.000000  2.000000  2.000000  2.000000
                       2.000000  2.000000  2.000000  2.000000  2.000000  2.000000
                       2.000000  2.000000  2.000000  2.000000  2.000000  2.000000
                       2.000000  2.000000  2.000000  2.000000  2.000000  2.000000
                       2.000000  2.000000  2.000000  2.000000  2.000000  2.000000
                       2.000000  2.000000  2.000000  2.000000  2.000000  2.000000
                       2.000000  2.000000  2.000000  2.000000  2.000000  2.000000
                       2.000000  2.000000  2.000000  2.000000  2.000000  2.000000
                       2.000000  2.000000  2.000000  2.000000  2.000000  2.000000
                       2.000000  2.000000  0.000000  0.000000  0.000000  0.000000
                       2.000000  2.000000  2.000000  2.000000  2.000000  2.000000
                       2.000000  2.000000  2.000000  2.000000  2.000000  2.000000
                       2.000000  2.000000  2.000000  2.000000  2.000000  2.000000
                       2.000000  2.000000  2.000000  2.000000  2.000000  2.000000
                       2.000000  2.000000  2.000000  2.000000  2.000000  2.000000
                       2.000000  2.000000  2.000000  2.000000  2.000000  2.000000
                       2.000000  2.000000  2.000000  2.000000  2.000000  2.000000
                       2.000000  2.000000  2.000000  2.000000  2.000000  2.000000
                       2.000000  2.000000  2.000000  2.000000  2.000000  2.000000
                       2.000000  2.000000  2.000000  2.000000  2.000000  2.000000
                       2.000000  2.000000  2.000000  2.000000  2.000000  2.000000
                       2.000000  2.000000  2.000000  2.000000  2.000000  2.000000
                       2.000000  2.000000  2.000000  2.000000  2.000000  2.000000
                       2.000000  2.000000  2.000000  2.000000  2.000000  2.000000
                       2.000000  2.000000  2.000000  2.000000  2.000000  2.000000
                       2.000000  2.000000  2.000000  2.000000  2.000000  2.000000
                       2.000000  2.000000  2.000000  2.000000  2.000000  2.000000
                       2.000000  2.000000  2.000000  2.000000  2.000000  2.000000
                       2.000000  2.000000  2.000000  2.000000  2.000000  2.000000
                       2.000000  2.000000  0.000000  0.000000  0.000000  0.000000
                       2.000000  2.000000  2.000000  2.000000  2.000000  2.000000
                       2.000000  2.000000  2.000000  2.000000  2.000000  2.000000
                       2.000000  2.000000  2.000000  2.000000  2.000000  2.000000
                       2.000000  2.000000  2.000000  2.000000  2.000000  2.000000
                       2.000000  2.000000  2.000000  2.000000  2.000000  2.000000
                       2.000000  2.000000  2.000000  2.000000  2.000000  2.000000
                       2.000000  2.000000  2.000000  2.000000  2.000000  2.000000
                       2.000000  2.000000  2.000000  2.000000  2.000000  2.000000
                       2.000000  2.000000  2.000000  2.000000  2.000000  2.000000
                       2.000000  2.000000  2.000000  2.000000  2.000000  2.000000
                       2.000000  2.000000  2.000000  2.000000  2.000000  2.000000
                       2.000000  2.000000  2.000000  2.000000  2.000000  2.000000
                       2.000000  2.000000  2.000000  2.000000  2.000000  2.000000
                       2.000000  2.000000  2.000000  2.000000  2.000000  2.000000
                       2.000000  2.000000  2.000000  2.000000  2.000000  2.000000
                       2.000000  2.000000  2.000000  2.000000  2.000000  2.000000
                       2.000000  2.000000  2.000000  2.000000  2.000000  2.000000
                       2.000000  2.000000  2.000000  2.000000  2.000000  2.000000
                       2.000000  2.000000  2.000000  2.000000  2.000000  2.000000
                       2.000000  2.000000  0.000000  0.000000  0.000000  0.000000
                       2.000000  2.000000  2.000000  2.000000  2.000000  2.000000
                       2.000000  2.000000  2.000000  2.000000  2.000000  2.000000
                       2.000000  2.000000  2.000000  2.000000  2.000000  2.000000
                       2.000000  2.000000  2.000000  2.000000  2.000000  2.000000
                       2.000000  2.000000  2.000000  2.000000  2.000000  2.000000
                       2.000000  2.000000  2.000000  2.000000  2.000000  2.000000
                       2.000000  2.000000  2.000000  2.000000  2.000000  2.000000
                       2.000000  2.000000  2.000000  2.000000  2.000000  2.000000
                       2.000000  2.000000  2.000000  2.000000  2.000000  2.000000
                       2.000000  2.000000  2.000000  2.000000  2.000000  2.000000
                       2.000000  2.000000  2.000000  2.000000  2.000000  2.000000
                       2.000000  2.000000  2.000000  2.000000  2.000000  2.000000
                       2.000000  2.000000  2.000000  2.000000  2.000000  2.000000
                       2.000000  2.000000  2.000000  2.000000  2.000000  2.000000
                       2.000000  2.000000  2.000000  2.000000  2.000000  2.000000
                       2.000000  2.000000  2.000000  2.000000  2.000000  2.000000
                       2.000000  2.000000  2.000000  2.000000  2.000000  2.000000
                       2.000000  2.000000  2.000000  2.000000  2.000000  2.000000
                       2.000000  2.000000  2.000000  2.000000  2.000000  2.000000
                       2.000000  2.000000  0.000000  0.000000  0.000000  0.000000
                       2.000000  2.000000  2.000000  2.000000  2.000000  2.000000
                       2.000000  2.000000  2.000000  2.000000  2.000000  2.000000
                       2.000000  2.000000  2.000000  2.000000  2.000000  2.000000
                       2.000000  2.000000  2.000000  2.000000  2.000000  2.000000
                       2.000000  2.000000  2.000000  2.000000  2.000000  2.000000
                       2.000000  2.000000  2.000000  2.000000  2.000000  2.000000
                       2.000000  2.000000  2.000000  2.000000  2.000000  2.000000
                       2.000000  2.000000  2.000000  2.000000  2.000000  2.000000
                       2.000000  2.000000  2.000000  2.000000  2.000000  2.000000
                       2.000000  2.000000  2.000000  2.000000  2.000000  2.000000
                       2.000000  2.000000  2.000000  2.000000  2.000000  2.000000
                       2.000000  2.000000  2.000000  2.000000  2.000000  2.000000
                       2.000000  2.000000  2.000000  2.000000  2.000000  2.000000
                       2.000000  2.000000  2.000000  2.000000  2.000000  2.000000
                       2.000000  2.000000  2.000000  2.000000  2.000000  2.000000
                       2.000000  2.000000  2.000000  2.000000  2.000000  2.000000
                       2.000000  2.000000  2.000000  2.000000  2.000000  2.000000
                       2.000000  2.000000  2.000000  2.000000  2.000000  2.000000
                       2.000000  2.000000  2.000000  2.000000  2.000000  2.000000
                       2.000000  2.000000  0.000000  0.000000  0.000000  0.000000
                       2.000000  2.000000  2.000000  2.000000  2.000000  2.000000
                       2.000000  2.000000  2.000000  2.000000  2.000000  2.000000
                       2.000000  2.000000  2.000000  2.000000  2.000000  2.000000
                       2.000000  2.000000  2.000000  2.000000  2.000000  2.000000
                       2.000000  2.000000  2.000000  2.000000  2.000000  2.000000
                       2.000000  2.000000  2.000000  2.000000  2.000000  2.000000
                       2.000000  2.000000  2.000000  2.000000  2.000000  2.000000
                       2.000000  2.000000  2.000000  2.000000  2.000000  2.000000
                       2.000000  2.000000  2.000000  2.000000  2.000000  2.000000
                       2.000000  2.000000  2.000000  2.000000  2.000000  2.000000
                       2.000000  2.000000  2.000000  2.000000  2.000000  2.000000
                       2.000000  2.000000  2.000000  2.000000  2.000000  2.000000
                       2.000000  2.000000  2.000000  2.000000  2.000000  2.000000
                       2.000000  2.000000  2.000000  2.000000  2.000000  2.000000
                       2.000000  2.000000  2.000000  2.000000  2.000000  2.000000
                       2.000000  2.000000  2.000000  2.000000  2.000000  2.000000
                       2.000000  2.000000  2.000000  2.000000  2.000000  2.000000
                       2.000000  2.000000  2.000000  2.000000  2.000000  2.000000
                       2.000000  2.000000  2.000000  2.000000  2.000000  2.000000
                       2.000000  2.000000  0.000000  0.000000  0.000000  0.000000
                       2.000000  2.000000  2.000000  2.000000  2.000000  2.000000
                       2.000000  2.000000  2.000000  2.000000  2.000000  2.000000
                       2.000000  2.000000  2.000000  2.000000  2.000000  2.000000
                       2.000000  2.000000  2.000000  2.000000  2.000000  2.000000
                       2.000000  2.000000  2.000000  2.000000  2.000000  2.000000
                       2.000000  2.000000  2.000000  2.000000  2.000000  2.000000
                       2.000000  2.000000  2.000000  2.000000  2.000000  2.000000
                       2.000000  2.000000  2.000000  2.000000  2.000000  2.000000
                       2.000000  2.000000  2.000000  2.000000  2.000000  2.000000
                       2.000000  2.000000  2.000000  2.000000  2.000000  2.000000
                       2.000000  2.000000  2.000000  2.000000  2.000000  2.000000
                       2.000000  2.000000  2.000000  2.000000  2.000000  2.000000
                       2.000000  2.000000  2.000000  2.000000  2.000000  2.000000
                       2.000000  2.000000  2.000000  2.000000  2.000000  2.000000
                       2.000000  2.000000  2.000000  2.000000  2.000000  2.000000
                       2.000000  2.000000  2.000000  2.000000  2.000000  2.000000
                       2.000000  2.000000  2.000000  2.000000  2.000000  2.000000
                       2.000000  2.000000  2.000000  2.000000  2.000000  2.000000
                       2.000000  2.000000  2.000000  2.000000  2.000000  2.000000
                       2.000000  2.000000  0.000000  0.000000  0.000000  0.000000
                       2.000000  2.000000  2.000000  2.000000  2.000000  2.000000
                       2.000000  2.000000  2.000000  2.000000  2.000000  2.000000
                       2.000000  2.000000  2.000000  2.000000  2.000000  2.000000
                       2.000000  2.000000  2.000000  2.000000  2.000000  2.000000
                       2.000000  2.000000  2.000000  2.000000  2.000000  2.000000
                       2.000000  2.000000  2.000000  2.000000  2.000000  2.000000
                       2.000000  2.000000  2.000000  2.000000  2.000000  2.000000
                       2.000000  2.000000  2.000000  2.000000  2.000000  2.000000
                       2.000000  2.000000  2.000000  2.000000  2.000000  2.000000
                       2.000000  2.000000  2.000000  2.000000  2.000000  2.000000
                       2.000000  2.000000  2.000000  2.000000  2.000000  2.000000
                       2.000000  2.000000  2.000000  2.000000  2.000000  2.000000
                       2.000000  2.000000  2.000000  2.000000  2.000000  2.000000
                       2.000000  2.000000  2.000000  2.000000  2.000000  2.000000
                       2.000000  2.000000  2.000000  2.000000  2.000000  2.000000
                       2.000000  2.000000  2.000000  2.000000  2.000000  2.000000
                       2.000000  2.000000  2.000000  2.000000  2.000000  2.000000
                       2.000000  2.000000  2.000000  2.000000  2.000000  2.000000
                       2.000000  2.000000  2.000000  2.000000  2.000000  2.000000
                       2.000000  2.000000  0.000000  0.000000  0.000000  0.000000
                       2.000000  2.000000  2.000000  2.000000  2.000000  2.000000
                       2.000000  2.000000  2.000000  2.000000  2.000000  2.000000
                       2.000000  2.000000  2.000000  2.000000  2.000000  2.000000
                       2.000000  2.000000  2.000000  2.000000  2.000000  2.000000
                       2.000000  2.000000  2.000000  2.000000  2.000000  2.000000
                       2.000000  2.000000  2.000000  2.000000  2.000000  2.000000
                       2.000000  2.000000  2.000000  2.000000  2.000000  2.000000
                       2.000000  2.000000  2.000000  2.000000  2.000000  2.000000
                       2.000000  2.000000  2.000000  2.000000  2.000000  2.000000
                       2.000000  2.000000  2.000000  2.000000  2.000000  2.000000
                       2.000000  2.000000  2.000000  2.000000  2.000000  2.000000
                       2.000000  2.000000  2.000000  2.000000  2.000000  2.000000
                       2.000000  2.000000  2.000000  2.000000  2.000000  2.000000
                       2.000000  2.000000  2.000000  2.000000  2.000000  2.000000
                       2.000000  2.000000  2.000000  2.000000  2.000000  2.000000
                       2.000000  2.000000  2.000000  2.000000  2.000000  2.000000
                       2.000000  2.000000  2.000000  2.000000  2.000000  2.000000
                       2.000000  2.000000  2.000000  2.000000  2.000000  2.000000
                       2.000000  2.000000  2.000000  2.000000  2.000000  2.000000
                       2.000000  2.000000  0.000000  0.000000  0.000000  0.000000
                       2.000000  2.000000  2.000000  2.000000  2.000000  2.000000
                       2.000000  2.000000  2.000000  2.000000  2.000000  2.000000
                       2.000000  2.000000  2.000000  2.000000  2.000000  2.000000
                       2.000000  2.000000  2.000000  2.000000  2.000000  2.000000
                       2.000000  2.000000  2.000000  2.000000  2.000000  2.000000
                       2.000000  2.000000  2.000000  2.000000  2.000000  2.000000
                       2.000000  2.000000  2.000000  2.000000  2.000000  2.000000
                       2.000000  2.000000  2.000000  2.000000  2.000000  2.000000
                       2.000000  2.000000  2.000000  2.000000  2.000000  2.000000
                       2.000000  2.000000  2.000000  2.000000  2.000000  2.000000
                       2.000000  2.000000  2.000000  2.000000  2.000000  2.000000
                       2.000000  2.000000  2.000000  2.000000  2.000000  2.000000
                       2.000000  2.000000  2.000000  2.000000  2.000000  2.000000
                       2.000000  2.000000  2.000000  2.000000  2.000000  2.000000
                       2.000000  2.000000  2.000000  2.000000  2.000000  2.000000
                       2.000000  2.000000  2.000000  2.000000  2.000000  2.000000
                       2.000000  2.000000  2.000000  2.000000  2.000000  2.000000
                       2.000000  2.000000  2.000000  2.000000  2.000000  2.000000
                       2.000000  2.000000  2.000000  2.000000  2.000000  2.000000
                       2.000000  2.000000  0.000000  0.000000  0.000000  0.000000
                       2.000000  2.000000  2.000000  2.000000  2.000000  2.000000
                       2.000000  2.000000  2.000000  2.000000  2.000000  2.000000
                       2.000000  2.000000  2.000000  2.000000  2.000000  2.000000
                       2.000000  2.000000  2.000000  2.000000  2.000000  2.000000
                       2.000000  2.000000  2.000000  2.000000  2.000000  2.000000
                       2.000000  2.000000  2.000000  2.000000  2.000000  2.000000
                       2.000000  2.000000  2.000000  2.000000  2.000000  2.000000
                       2.000000  2.000000  2.000000  2.000000  2.000000  2.000000
                       2.000000  2.000000  2.000000  2.000000  2.000000  2.000000
                       2.000000  2.000000  2.000000  2.000000  2.000000  2.000000
                       2.000000  2.000000  2.000000  2.000000  2.000000  2.000000
                       2.000000  2.000000  2.000000  2.000000  2.000000  2.000000
                       2.000000  2.000000  2.000000  2.000000  2.000000  2.000000
                       2.000000  2.000000  2.000000  2.000000  2.000000  2.000000
                       2.000000  2.000000  2.000000  2.000000  2.000000  2.000000
                       2.000000  2.000000  2.000000  2.000000  2.000000  2.000000
                       2.000000  2.000000  2.000000  2.000000  2.000000  2.000000
                       2.000000  2.000000  2.000000  2.000000  2.000000  2.000000
                       2.000000  2.000000  2.000000  2.000000  2.000000  2.000000
                       2.000000  2.000000  0.000000  0.000000  0.000000  0.000000
           occopt           7
        optdriver           1
        pawecutdg      3.00000000E+01 Hartree
         pawxcdev           0
           prtden           0
              qpt      0.00000000E+00  2.50000000E-01  0.00000000E+00
            rfdir           0       0       1
           rfphon           1
           shiftk      5.00000000E-01  5.00000000E-01  5.00000000E-01
          spgroup          47
           symrel      1  0  0   0  1  0   0  0  1      -1  0  0   0 -1  0   0  0 -1
                      -1  0  0   0  1  0   0  0 -1       1  0  0   0 -1  0   0  0  1
                      -1  0  0   0 -1  0   0  0  1       1  0  0   0  1  0   0  0 -1
                       1  0  0   0 -1  0   0  0 -1      -1  0  0   0  1  0   0  0  1
           timopt          -2
            tnons      0.0000000  0.0000000  0.0000000     0.0000000  0.0000000 -0.4285714
                       0.0000000  0.0000000 -0.4285714     0.0000000  0.0000000  0.0000000
                       0.0000000  0.0000000  0.0000000     0.0000000  0.0000000 -0.4285714
                       0.0000000  0.0000000 -0.4285714     0.0000000  0.0000000  0.0000000
           tolwfr      1.00000000E-22
            typat      3  3  2  3  3  2  1  3  3  3  2  1  3  3  3  2  1  3  3  3
                       2  1  3  3  3  2  3  3  2
           useylm           1
              wtk        0.06250    0.06250    0.06250    0.06250    0.06250    0.06250
                         0.06250    0.06250    0.06250    0.06250    0.06250    0.06250
                         0.06250    0.06250    0.06250    0.06250
           xangst      0.0000000000E+00  0.0000000000E+00 -2.2560597003E+00
                       2.0000000000E+00  2.0000000000E+00 -1.7358821221E+00
                       0.0000000000E+00  2.0000000000E+00 -1.9382320766E+00
                       2.0000000000E+00  0.0000000000E+00  3.4528873159E-01
                       0.0000000000E+00  2.0000000000E+00 -5.5854849972E-02
                       2.0000000000E+00  2.0000000000E+00  1.7294657522E-01
                       0.0000000000E+00  0.0000000000E+00  2.1069676394E+00
                       2.0000000000E+00  2.0000000000E+00  2.1255940917E+00
                       2.0000000000E+00  0.0000000000E+00  4.1033165071E+00
                       0.0000000000E+00  2.0000000000E+00  4.0568887931E+00
                       2.0000000000E+00  2.0000000000E+00  4.0843127188E+00
                       0.0000000000E+00  0.0000000000E+00  6.0394536284E+00
                       2.0000000000E+00  2.0000000000E+00  6.0414127393E+00
                       2.0000000000E+00  0.0000000000E+00  8.0000000000E+00
                       0.0000000000E+00  2.0000000000E+00  8.0000000000E+00
                       2.0000000000E+00  2.0000000000E+00  8.0000000000E+00
                       0.0000000000E+00  0.0000000000E+00  9.9605463720E+00
                       2.0000000000E+00  2.0000000000E+00  9.9585872606E+00
                       2.0000000000E+00  0.0000000000E+00  1.1896683493E+01
                       0.0000000000E+00  2.0000000000E+00  1.1943111207E+01
                       2.0000000000E+00  2.0000000000E+00  1.1915687281E+01
                       0.0000000000E+00  0.0000000000E+00  1.3893032361E+01
                       2.0000000000E+00  2.0000000000E+00  1.3874405908E+01
                       2.0000000000E+00  0.0000000000E+00  1.5654711268E+01
                       0.0000000000E+00  2.0000000000E+00  1.6055854850E+01
                       2.0000000000E+00  2.0000000000E+00  1.5827053425E+01
                       0.0000000000E+00  0.0000000000E+00  1.8256059700E+01
                       2.0000000000E+00  2.0000000000E+00  1.7735882122E+01
                       0.0000000000E+00  2.0000000000E+00  1.7938232077E+01
            xcart      0.0000000000E+00  0.0000000000E+00 -4.2633349730E+00
                       3.7794522658E+00  3.7794522658E+00 -3.2803418097E+00
                       0.0000000000E+00  3.7794522658E+00 -3.6627278067E+00
                       3.7794522658E+00  0.0000000000E+00  6.5250113947E-01
                       0.0000000000E+00  3.7794522658E+00 -1.0555036964E-01
                       3.7794522658E+00  3.7794522658E+00  3.2682166278E-01
                       0.0000000000E+00  0.0000000000E+00  3.9815918094E+00
                       3.7794522658E+00  3.7794522658E+00  4.0167907030E+00
                       3.7794522658E+00  0.0000000000E+00  7.7541444349E+00
                       0.0000000000E+00  3.7794522658E+00  7.6664087705E+00
                       3.7794522658E+00  3.7794522658E+00  7.7182324796E+00
                       0.0000000000E+00  0.0000000000E+00  1.1412913350E+01
                       3.7794522658E+00  3.7794522658E+00  1.1416615533E+01
                       3.7794522658E+00  0.0000000000E+00  1.5117809063E+01
                       0.0000000000E+00  3.7794522658E+00  1.5117809063E+01
                       3.7794522658E+00  3.7794522658E+00  1.5117809063E+01
                       0.0000000000E+00  0.0000000000E+00  1.8822704777E+01
                       3.7794522658E+00  3.7794522658E+00  1.8819002593E+01
                       3.7794522658E+00  0.0000000000E+00  2.2481473692E+01
                       0.0000000000E+00  3.7794522658E+00  2.2569209355E+01
                       3.7794522658E+00  3.7794522658E+00  2.2517385647E+01
                       0.0000000000E+00  0.0000000000E+00  2.6254026317E+01
                       3.7794522658E+00  3.7794522658E+00  2.6218827423E+01
                       3.7794522658E+00  0.0000000000E+00  2.9583116986E+01
                       0.0000000000E+00  3.7794522658E+00  3.0341168496E+01
                       3.7794522658E+00  3.7794522658E+00  2.9908796464E+01
                       0.0000000000E+00  0.0000000000E+00  3.4498953099E+01
                       3.7794522658E+00  3.7794522658E+00  3.3515959935E+01
                       0.0000000000E+00  3.7794522658E+00  3.3898345933E+01
             xred      0.0000000000E+00  0.0000000000E+00 -8.0573560725E-02
                       5.0000000000E-01  5.0000000000E-01 -6.1995790074E-02
                       0.0000000000E+00  5.0000000000E-01 -6.9222574163E-02
                       5.0000000000E-01  0.0000000000E+00  1.2331740414E-02
                       0.0000000000E+00  5.0000000000E-01 -1.9948160704E-03
                       5.0000000000E-01  5.0000000000E-01  6.1766634006E-03
                       0.0000000000E+00  0.0000000000E+00  7.5248844266E-02
                       5.0000000000E-01  5.0000000000E-01  7.5914074704E-02
                       5.0000000000E-01  0.0000000000E+00  1.4654701811E-01
                       0.0000000000E+00  5.0000000000E-01  1.4488888547E-01
                       5.0000000000E-01  5.0000000000E-01  1.4586831139E-01
                       0.0000000000E+00  0.0000000000E+00  2.1569477244E-01
                       5.0000000000E-01  5.0000000000E-01  2.1576474069E-01
                       5.0000000000E-01  0.0000000000E+00  2.8571428571E-01
                       0.0000000000E+00  5.0000000000E-01  2.8571428571E-01
                       5.0000000000E-01  5.0000000000E-01  2.8571428571E-01
                       0.0000000000E+00  0.0000000000E+00  3.5573379900E-01
                       5.0000000000E-01  5.0000000000E-01  3.5566383074E-01
                       5.0000000000E-01  0.0000000000E+00  4.2488155333E-01
                       0.0000000000E+00  5.0000000000E-01  4.2653968595E-01
                       5.0000000000E-01  5.0000000000E-01  4.2556026005E-01
                       0.0000000000E+00  0.0000000000E+00  4.9617972717E-01
                       5.0000000000E-01  5.0000000000E-01  4.9551449672E-01
                       5.0000000000E-01  0.0000000000E+00  5.5909683100E-01
                       0.0000000000E+00  5.0000000000E-01  5.7342338750E-01
                       5.0000000000E-01  5.0000000000E-01  5.6525190804E-01
                       0.0000000000E+00  0.0000000000E+00  6.5200213215E-01
                       5.0000000000E-01  5.0000000000E-01  6.3342436149E-01
                       0.0000000000E+00  5.0000000000E-01  6.4065114559E-01
            znucl       56.00000   22.00000    8.00000

================================================================================

 chkinp: Checking input parameters for consistency.

================================================================================
== DATASET  1 ==================================================================
-   nproc =   32

 Exchange-correlation functional for the present dataset will be:
  LDA: Perdew-Wang 92 LSD fit to Ceperley-Alder data - ixc=7
 Citation for XC functional:
  J.P.Perdew and Y.Wang, PRB 45, 13244 (1992)

 Real(R)+Recip(G) space primitive vectors, cartesian coordinates (Bohr,Bohr^-1):
 R(1)=  7.5589045  0.0000000  0.0000000  G(1)=  0.1322943  0.0000000  0.0000000
 R(2)=  0.0000000  7.5589045  0.0000000  G(2)=  0.0000000  0.1322943  0.0000000
 R(3)=  0.0000000  0.0000000 52.9123317  G(3)=  0.0000000  0.0000000  0.0188992
 Unit cell volume ucvol=  3.0232539E+03 bohr^3
 Angles (23,13,12)=  9.00000000E+01  9.00000000E+01  9.00000000E+01 degrees
 setup1 : take into account q-point for computing boxcut.

 Coarse grid specifications (used for wave-functions):

 getcut: wavevector=  0.0000  0.2500  0.0000  ngfft=  30  30 192
         ecut(hartree)=     15.000   => boxcut(ratio)=   2.08164

 Fine grid specifications (used for densities):

 getcut: wavevector=  0.0000  0.2500  0.0000  ngfft=  40  40 270
         ecut(hartree)=     30.000   => boxcut(ratio)=   2.06975

--- Pseudopotential description ------------------------------------------------
- pspini: atom type   1  psp file is ba_ps.abinit.paw
- pspatm: opening atomic psp file    ba_ps.abinit.paw
- Paw atomic data for element Ba - Generated by AtomPAW + AtomPAW2Abinit v3.2.0
- 56.00000  10.00000  20091115                znucl, zion, pspdat
    7    7    1    0       881   0.00000      pspcod,pspxc,lmax,lloc,mmax,r2well
 Pseudopotential format is: paw4
 basis_size (lnmax)=  4 (lmn_size=  8), orbitals=   0   0   1   1
 Spheres core radius: rc_sph= 2.40629003
 4 radial meshes are used:
  - mesh 1: r(i)=AA*[exp(BB*(i-1))-1], size= 881 , AA= 0.19252E-03 BB= 0.10781E-01
  - mesh 2: r(i)=AA*[exp(BB*(i-1))-1], size= 889 , AA= 0.19252E-03 BB= 0.10781E-01
  - mesh 3: r(i)=AA*[exp(BB*(i-1))-1], size= 934 , AA= 0.19252E-03 BB= 0.10781E-01
  - mesh 4: r(i)=AA*[exp(BB*(i-1))-1], size=1008 , AA= 0.19252E-03 BB= 0.10781E-01
 Shapefunction is SIN type: shapef(r)=[sin(pi*r/rshp)/(pi*r/rshp)]**2
 Radius for shape functions = sphere core radius
 Radial grid used for partial waves is grid 1
 Radial grid used for projectors is grid 2
 Radial grid used for (t)core density is grid 3
 Radial grid used for Vloc is grid 4
 Radial grid used for pseudo valence density is grid 4
 pspatm: atomic psp has been read  and splines computed

- pspini: atom type   2  psp file is Ti-LDA-uspp.paw
- pspatm: opening atomic psp file    Ti-LDA-uspp.paw
- titanium - PAW data extracted from US-psp (D.Vanderbilt) - generated by USpp2Abinit v2.3.0
- 22.00000  12.00000  20090106                znucl, zion, pspdat
    7    7    2    0       587   0.00000      pspcod,pspxc,lmax,lloc,mmax,r2well
 Pseudopotential format is: paw4
 basis_size (lnmax)=  6 (lmn_size= 18), orbitals=   0   0   1   1   2   2
 Spheres core radius: rc_sph= 2.13051192
 4 radial meshes are used:
  - mesh 1: r(i)=AA*[exp(BB*(i-1))-1], size= 587 , AA= 0.11267E-03 BB= 0.16949E-01
  - mesh 2: r(i)=AA*[exp(BB*(i-1))-1], size= 583 , AA= 0.11267E-03 BB= 0.16949E-01
  - mesh 3: r(i)=AA*[exp(BB*(i-1))-1], size= 673 , AA= 0.11267E-03 BB= 0.16949E-01
  - mesh 4: r(i)=AA*[exp(BB*(i-1))-1], size= 678 , AA= 0.11267E-03 BB= 0.16949E-01
 Shapefunction is BESSEL type: shapef(r,l)=aa(1,l)*jl(q(1,l)*r)+aa(2,l)*jl(q(2,l)*r)
 Radius for shape functions = sphere core radius
 Radial grid used for partial waves is grid 1
 Radial grid used for projectors is grid 2
 Radial grid used for (t)core density is grid 1
 Radial grid used for Vloc is grid 3
 Radial grid used for pseudo valence density is grid 4
 pspatm: atomic psp has been read  and splines computed

- pspini: atom type   3  psp file is 8o.paw
- pspatm: opening atomic psp file    8o.paw
- Paw atomic data for element O - Generated by AtomPAW (N. Holzwarth)
-  8.00000   6.00000  20040423                znucl, zion, pspdat
    7    7    1    0       350   0.00000      pspcod,pspxc,lmax,lloc,mmax,r2well
 Pseudopotential format is: paw2
 basis_size (lnmax)=  4 (lmn_size=  8), orbitals=   0   0   1   1
 Spheres core radius: rc_sph= 1.41000000
 2 radial meshes are used:
  - mesh 1: r(i)=AA*exp(BB*(i-2)), size= 350 , AA= 0.72362E-05 BB= 0.35000E-01
  - mesh 2: r(i)=step*(i-1), size= 566 , step= 0.25000E-02
 Shapefunction is SIN type: shapef(r)=[sin(pi*r/rshp)/(pi*r/rshp)]**2
 Radius for shape functions = sphere core radius
 Radial grid used for partial waves is grid 1
 Radial grid used for projectors is grid 2
 Radial grid used for (t)core density is grid 1
 Radial grid used for Vloc is grid 1
 pspatm: atomic psp has been read  and splines computed

   1.34818859E+05                                ecore*ucvol(ha*bohr**3)
--------------------------------------------------------------------------------

-inwffil : will read wavefunctions from disk file tdfpt_04.i_WFK
-P-0000 - newkpt: read input wf with ikpt,npw=   1    8428, make ikpt,npw=   1    8428


 ==>  initialize data related to q vector <== 

 The list of irreducible perturbations for this q vector is:
    1)    idir= 3    ipert=   1

================================================================================

--------------------------------------------------------------------------------
 Perturbation wavevector (in red.coord.)   0.000000  0.250000  0.000000
 Perturbation : displacement of atom   1   along direction   3
 Found     2 symmetries that leave the perturbation invariant.
 symkpt : the number of k-points, thanks to the symmetries,
 is reduced to     8 .

--------------------------------------------------------------------------------

-inwffil : will read wavefunctions from disk file tdfpt_04.i_WFK
-P-0000 - newkpt: read input wf with ikpt,npw=   1    8428, make ikpt,npw=   1    8428

--------------------------------------------------------------------------------

-inwffil : will read wavefunctions from disk file tdfpt_04.i_WFK
-P-0000 - newkpt: read input wf with ikpt,npw=   3    8390, make ikpt,npw=   1    8390

 loper3 : total number of electrons, from k and k+q
  fully or partially occupied states are    2.320000E+02 and    2.320000E+02.
 Initialisation of the first-order wave-functions :
  ireadwf=   0
P newkpt: treating     30 bands with npw=    8390 for ikpt=   1 by node    3
P newkpt: treating     30 bands with npw=    8356 for ikpt=   2 by node    7
P newkpt: treating     30 bands with npw=    8390 for ikpt=   3 by node   11
P newkpt: treating     30 bands with npw=    8356 for ikpt=   4 by node   15
P newkpt: treating     30 bands with npw=    8428 for ikpt=   5 by node   19
P newkpt: treating     30 bands with npw=    8390 for ikpt=   6 by node   23
P newkpt: treating     30 bands with npw=    8428 for ikpt=   7 by node   27
P newkpt: treating     30 bands with npw=    8390 for ikpt=   8 by node   31


     iter   2DEtotal(Ha)        deltaE(Ha) residm    vres2
-ETOT  1   53514.396924888     -2.309E+04 1.484E+03 9.550E+08
 ETOT  2   6546.7654603049     -4.697E+04 5.325E+02 7.432E+07
 ETOT  3   12981.250511368      6.434E+03 7.556E+01 1.960E+08
 ETOT  4   2344.5062861184     -1.064E+04 1.716E+02 4.005E+07
 ETOT  5   1078.6941287149     -1.266E+03 8.007E+01 2.061E+07
 ETOT  6   365.86813205130     -7.128E+02 2.137E+01 8.157E+06
 ETOT  7   297.44154371716     -6.843E+01 1.310E+01 9.277E+06
 ETOT  8   213.60561434514     -8.384E+01 5.629E+00 5.440E+06
 ETOT  9   210.75149577121     -2.854E+00 7.649E+00 4.572E+06
 ETOT 10   211.95977522942      1.208E+00 2.268E+00 3.968E+06
 ETOT 11   153.81770124860     -5.814E+01 2.499E+00 1.757E+06
 ETOT 12   144.14117088232     -9.677E+00 4.095E-01 7.257E+05
 ETOT 13   139.15284764793     -4.988E+00 1.589E+00 5.219E+05
 ETOT 14   135.76328841195     -3.390E+00 2.960E-01 2.239E+05
 ETOT 15   132.15936266681     -3.604E+00 5.504E-01 1.419E+05
 ETOT 16   130.95618600813     -1.203E+00 1.963E-01 8.271E+04
 ETOT 17   129.68792806154     -1.268E+00 7.267E-01 4.113E+04
 ETOT 18   129.18248086587     -5.054E-01 1.237E-01 2.059E+04

 scprqt:  WARNING -
  nstep=   18 was not enough SCF cycles to converge;
  maximum residual=  1.237E-01 exceeds tolwfr=  1.000E-22

================================================================================

 ----iterations are completed or convergence reached----

 Mean square residual over all n,k,spin=  -1.1974E-03; max=  1.2368E-01
   0.1250  0.1250  0.5000    1  1.19268E-03 kpt; spin; max resid(k); each band:
  2.27E-06 4.65E-06 1.58E-07 8.22E-07 2.68E-09 7.53E-08 2.81E-08 7.54E-06
  7.86E-06 2.80E-06 5.29E-06 1.16E-06 1.28E-06 1.44E-06 1.53E-06 2.93E-06
  4.97E-06 1.70E-07 1.86E-07 1.06E-07 2.81E-08 1.07E-07 4.48E-08 6.53E-08
  4.79E-08 5.23E-08 2.13E-07 7.78E-07 5.58E-08 7.06E-08 4.25E-08 2.64E-08
  3.14E-07 1.15E-06 7.94E-07 1.03E-06 1.10E-07 1.42E-06 1.30E-06 1.08E-06
  1.04E-06 2.47E-07 9.58E-08 1.52E-07 9.83E-08 1.73E-07 1.37E-06 1.48E-06
  4.29E-06 2.03E-06 2.84E-07 3.73E-07 4.10E-08 6.70E-08 1.46E-07 2.08E-07
  2.50E-07 3.31E-07 2.27E-07 3.42E-07 1.00E-07 1.89E-07 1.86E-05 1.71E-05
  9.13E-06 3.43E-05 4.71E-05 3.42E-05 2.03E-05 3.74E-05 5.00E-05 2.05E-05
  2.03E-05 3.05E-05 7.50E-06 4.55E-06 2.36E-05 1.94E-05 7.47E-06 4.76E-06
  3.10E-05 3.99E-05 2.56E-05 1.15E-05 4.22E-05 1.09E-04 1.12E-04 1.05E-04
  1.32E-04 4.38E-05 5.05E-05 4.72E-05 3.16E-05 4.38E-05 9.77E-05 1.82E-04
  2.48E-04 1.38E-05 1.74E-05 2.49E-05 8.04E-05 1.89E-05 3.54E-05 6.58E-05
  6.28E-05 6.30E-05 9.23E-05 5.48E-05 1.22E-04 3.76E-05 2.13E-04 2.10E-04
  6.06E-04 6.83E-04 1.19E-03 1.16E-03 3.42E-04 4.73E-04-1.00E-01-1.00E-01
   0.3750  0.1250  0.5000    1  1.54142E-03 kpt; spin; max resid(k); each band:
  2.30E-06 5.31E-06 1.40E-07 7.83E-07 2.96E-09 9.75E-08 2.99E-08 5.96E-06
  6.12E-06 2.30E-06 4.63E-06 1.40E-06 1.45E-06 8.81E-07 1.14E-06 2.72E-06
  4.43E-06 5.19E-07 5.12E-08 1.02E-07 3.15E-07 5.27E-08 1.41E-07 4.13E-08
  6.39E-08 4.78E-08 1.35E-07 7.50E-07 5.20E-08 6.41E-08 3.71E-08 2.90E-08
  6.28E-07 7.32E-07 3.60E-07 6.95E-07 5.87E-07 5.45E-07 3.55E-07 7.76E-07
  8.39E-07 6.13E-08 6.29E-08 1.14E-07 1.53E-07 6.93E-08 1.32E-06 1.36E-06
  3.41E-06 2.14E-06 3.48E-07 2.86E-07 2.97E-07 1.24E-07 2.33E-07 2.17E-07
  1.36E-07 2.73E-07 2.05E-07 2.54E-07 1.57E-07 1.38E-07 2.17E-05 2.20E-05
  2.81E-05 2.84E-05 7.13E-06 1.15E-05 5.79E-05 6.58E-05 1.05E-05 9.53E-06
  2.41E-05 3.47E-05 3.19E-05 2.10E-05 5.05E-05 4.76E-05 3.56E-05 2.20E-05
  1.90E-05 9.26E-06 6.69E-06 2.39E-05 1.01E-05 2.56E-05 8.13E-05 1.08E-04
  1.14E-04 1.25E-04 2.59E-05 8.06E-06 1.69E-05 4.96E-05 1.01E-04 2.44E-04
  1.70E-04 3.58E-05 2.35E-05 3.59E-05 2.01E-05 2.14E-05 4.06E-05 1.05E-05
  5.84E-05 3.43E-05 1.39E-04 1.72E-04 3.71E-05 1.36E-04 1.36E-04 4.74E-04
  5.08E-04 4.05E-05 4.38E-04 4.11E-04 9.15E-04 1.54E-03-1.00E-01-1.00E-01
   0.1250  0.3750  0.5000    1  8.56386E-04 kpt; spin; max resid(k); each band:
  2.14E-06 4.55E-06 1.48E-07 7.06E-07 3.02E-09 7.26E-08 2.95E-08 7.97E-06
  7.86E-06 2.78E-06 5.27E-06 1.17E-06 1.29E-06 1.43E-06 1.52E-06 3.31E-06
  5.06E-06 1.67E-07 1.82E-07 5.37E-08 6.35E-08 5.84E-08 1.07E-07 2.28E-08
  1.09E-07 5.44E-08 2.03E-07 8.94E-07 5.97E-08 7.09E-08 3.98E-08 2.95E-08
  6.07E-07 8.60E-07 4.60E-07 1.26E-06 1.63E-06 1.38E-06 5.82E-07 8.79E-07
  9.43E-07 8.78E-08 8.03E-08 9.29E-08 1.55E-07 7.85E-08 1.22E-06 1.93E-06
  3.01E-06 9.88E-07 2.98E-07 3.47E-07 1.26E-07 1.48E-07 1.84E-07 2.39E-07
  1.31E-07 2.61E-07 2.47E-07 1.98E-07 8.41E-08 1.21E-07 1.58E-05 1.66E-05
  8.84E-06 8.97E-06 3.59E-05 3.79E-05 5.17E-06 1.72E-05 2.29E-05 2.83E-05
  2.57E-05 6.09E-05 7.54E-05 1.46E-05 2.50E-05 2.92E-05 1.18E-04 2.03E-04
  1.10E-04 3.60E-05 5.00E-05 2.56E-05 4.16E-05 5.78E-06 1.50E-05 2.99E-05
  1.79E-05 8.89E-05 3.88E-05 5.46E-05 1.36E-04 4.82E-05 5.76E-05 7.77E-05
  1.27E-04 4.74E-05 1.26E-04 4.11E-05 1.25E-04 1.60E-04 3.54E-05 2.01E-05
  3.12E-05 2.80E-05 1.21E-05 3.33E-05 3.53E-04 8.56E-04 6.86E-04 6.00E-04
  7.91E-04 2.93E-04 1.64E-04 1.62E-04 3.59E-04 6.33E-04-1.00E-01-1.00E-01
   0.3750  0.3750  0.5000    1  1.00445E-03 kpt; spin; max resid(k); each band:
  2.19E-06 5.04E-06 1.32E-07 6.71E-07 2.81E-09 6.90E-08 3.02E-08 5.55E-06
  6.08E-06 2.29E-06 4.62E-06 1.37E-06 1.39E-06 2.92E-06 4.55E-06 8.86E-07
  1.13E-06 5.06E-07 3.96E-08 1.07E-07 6.18E-08 6.21E-08 2.91E-07 5.89E-08
  5.54E-08 1.41E-07 1.38E-07 8.31E-07 5.82E-08 6.82E-08 3.89E-08 2.99E-08
  5.18E-07 7.90E-07 5.87E-07 9.49E-07 5.30E-07 5.32E-07 6.84E-07 1.05E-07
  5.89E-07 2.20E-07 1.06E-07 7.81E-08 9.09E-08 6.52E-08 1.45E-06 9.93E-06
  2.47E-06 1.20E-06 1.82E-07 2.14E-07 2.32E-07 2.84E-07 2.83E-07 3.82E-07
  3.79E-07 2.01E-07 3.92E-07 3.77E-07 2.12E-07 2.27E-07 1.94E-05 2.11E-05
  6.36E-06 3.89E-05 3.99E-05 8.07E-06 5.16E-06 3.54E-05 4.31E-05 1.25E-05
  3.29E-05 8.26E-05 7.21E-05 6.12E-06 4.85E-06 2.31E-06 2.72E-05 3.90E-05
  3.96E-05 4.87E-05 1.19E-04 1.03E-04 3.22E-05 2.09E-04 2.02E-04 1.81E-05
  4.11E-05 3.93E-05 7.23E-06 7.23E-06 4.70E-06 1.76E-05 1.18E-05 4.09E-05
  6.16E-05 9.81E-05 9.40E-05 6.97E-05 6.20E-05 6.49E-05 6.40E-04 4.29E-04
  2.21E-04 1.10E-04 2.20E-05 2.34E-05 7.32E-06 4.18E-05 3.07E-04 3.27E-04
  2.44E-04 1.86E-04 3.95E-04 3.86E-04 1.00E-03 7.63E-04-1.00E-01-1.00E-01
   0.1250 -0.3750  0.5000    1  7.73388E-03 kpt; spin; max resid(k); each band:
  2.50E-06 4.99E-06 1.43E-07 6.11E-07 2.92E-09 5.93E-08 2.46E-08 7.47E-06
  7.36E-06 3.34E-06 4.98E-06 1.20E-06 1.26E-06 1.47E-06 1.53E-06 3.19E-06
  5.37E-06 1.66E-07 1.72E-07 5.45E-08 6.19E-08 6.68E-08 1.05E-07 2.98E-08
  1.06E-07 5.65E-08 2.09E-07 8.79E-07 5.39E-08 6.53E-08 3.63E-08 2.95E-08
  6.66E-07 9.54E-07 4.92E-07 1.31E-06 1.64E-06 1.37E-06 5.89E-07 1.01E-06
  1.08E-06 9.28E-08 8.07E-08 1.10E-07 1.61E-07 1.04E-07 1.49E-06 2.32E-06
  3.50E-06 1.22E-06 3.20E-07 3.62E-07 1.42E-07 1.36E-07 1.77E-07 2.10E-07
  1.15E-07 1.94E-07 1.68E-07 1.71E-07 7.23E-08 1.22E-07 2.28E-05 2.63E-05
  1.25E-05 9.20E-06 3.94E-05 4.07E-05 4.54E-06 1.80E-05 2.31E-05 3.10E-05
  3.01E-05 4.95E-05 6.67E-05 1.25E-05 1.92E-05 2.95E-05 1.42E-04 2.06E-04
  1.10E-04 3.59E-05 5.43E-05 3.20E-05 4.89E-05 7.28E-06 1.32E-05 2.93E-05
  1.58E-05 7.99E-05 3.99E-05 5.42E-05 1.33E-04 5.47E-05 7.65E-05 8.15E-05
  1.24E-04 5.43E-05 9.80E-05 3.57E-05 9.50E-05 1.39E-04 2.86E-05 1.96E-05
  3.46E-05 2.60E-05 1.27E-05 2.85E-05 2.76E-04 6.74E-04 4.75E-04 3.68E-04
  5.17E-04 2.60E-04 1.71E-04 1.71E-04 7.73E-03 5.03E-03-1.00E-01-1.00E-01
   0.3750 -0.3750  0.5000    1  1.23680E-01 kpt; spin; max resid(k); each band:
  2.37E-06 4.73E-06 1.44E-07 7.10E-07 2.34E-09 6.38E-08 2.62E-08 5.43E-06
  6.07E-06 3.12E-06 4.88E-06 1.26E-06 1.32E-06 2.96E-06 5.05E-06 9.36E-07
  1.23E-06 5.32E-07 3.92E-08 1.04E-07 7.34E-08 6.00E-08 3.28E-07 6.71E-08
  5.79E-08 1.31E-07 1.40E-07 7.64E-07 5.65E-08 6.66E-08 3.79E-08 2.80E-08
  6.01E-07 9.28E-07 6.25E-07 9.97E-07 5.62E-07 5.82E-07 7.20E-07 1.27E-07
  6.65E-07 2.68E-07 1.18E-07 9.11E-08 1.15E-07 9.16E-08 1.78E-06 2.14E-06
  3.03E-06 1.60E-06 3.03E-07 3.15E-07 1.66E-07 3.21E-07 4.03E-07 2.98E-07
  3.39E-07 2.68E-07 3.15E-07 3.64E-07 1.69E-07 2.28E-07 2.80E-05 3.58E-05
  6.39E-06 4.30E-05 4.43E-05 8.93E-06 6.03E-06 3.65E-05 4.05E-05 1.03E-05
  3.00E-05 8.56E-05 8.19E-05 6.57E-06 4.72E-06 1.77E-06 3.20E-05 4.69E-05
  4.24E-05 6.06E-05 9.05E-05 1.03E-04 4.24E-05 2.37E-04 2.28E-04 2.51E-05
  4.65E-05 5.29E-05 1.09E-05 9.66E-06 3.44E-06 4.74E-05 1.78E-05 1.10E-04
  7.71E-05 1.02E-04 9.31E-05 6.98E-05 6.48E-05 4.37E-05 2.79E-04 2.13E-04
  1.46E-04 7.30E-05 2.24E-05 3.84E-05 1.83E-05 2.56E-05 1.18E-04 1.39E-04
  2.05E-04 1.43E-04 1.34E-04 1.33E-04 6.32E-02 1.24E-01-1.00E-01-1.00E-01
   0.1250 -0.1250  0.5000    1  5.41127E-03 kpt; spin; max resid(k); each band:
  2.60E-06 5.10E-06 1.56E-07 7.73E-07 2.89E-09 6.90E-08 2.63E-08 6.86E-06
  7.34E-06 3.44E-06 5.02E-06 1.14E-06 1.21E-06 1.46E-06 1.52E-06 2.69E-06
  5.30E-06 1.75E-07 1.80E-07 1.05E-07 3.73E-08 1.06E-07 4.40E-08 6.28E-08
  5.69E-08 5.33E-08 2.31E-07 7.92E-07 4.91E-08 6.39E-08 3.85E-08 2.47E-08
  3.35E-07 1.25E-06 8.34E-07 1.08E-06 1.13E-07 1.43E-06 1.31E-06 1.21E-06
  1.18E-06 2.66E-07 1.15E-07 1.69E-07 1.12E-07 1.97E-07 1.59E-06 1.71E-06
  5.04E-06 1.92E-06 3.59E-07 4.71E-07 5.24E-08 6.38E-08 1.33E-07 1.31E-07
  1.95E-07 2.12E-07 2.25E-07 2.19E-07 1.36E-07 1.22E-07 2.85E-05 2.80E-05
  9.58E-06 3.41E-05 5.14E-05 3.78E-05 2.23E-05 3.52E-05 4.59E-05 2.16E-05
  2.85E-05 4.50E-05 9.60E-06 5.64E-06 2.80E-05 2.28E-05 1.13E-05 5.10E-06
  2.85E-05 3.61E-05 2.64E-05 1.11E-05 3.42E-05 1.03E-04 1.19E-04 1.18E-04
  1.54E-04 5.38E-05 6.02E-05 5.46E-05 3.87E-05 4.65E-05 8.87E-05 1.93E-04
  2.31E-04 3.05E-05 1.61E-05 3.14E-05 8.11E-05 3.05E-05 5.71E-05 7.37E-05
  4.63E-05 8.37E-05 6.35E-05 4.29E-05 1.24E-04 3.86E-05 2.33E-04 1.71E-04
  3.50E-04 2.93E-04 6.53E-04 6.95E-04 5.41E-03 2.06E-03-1.00E-01-1.00E-01
   0.3750 -0.1250  0.5000    1  1.96431E-01 kpt; spin; max resid(k); each band:
  2.45E-06 4.78E-06 1.54E-07 8.48E-07 2.49E-09 7.89E-08 2.90E-08 5.78E-06
  6.10E-06 3.12E-06 4.88E-06 1.33E-06 1.42E-06 9.59E-07 1.22E-06 2.80E-06
  4.96E-06 5.68E-07 5.05E-08 1.00E-07 3.38E-07 5.58E-08 1.34E-07 4.12E-08
  6.15E-08 5.77E-08 1.44E-07 7.20E-07 5.10E-08 6.32E-08 3.52E-08 2.67E-08
  7.19E-07 8.40E-07 3.94E-07 7.48E-07 6.26E-07 6.14E-07 4.08E-07 8.78E-07
  9.47E-07 7.78E-08 7.27E-08 1.28E-07 1.71E-07 8.05E-08 1.58E-06 1.63E-06
  4.79E-06 2.37E-06 3.96E-07 3.24E-07 3.11E-07 1.12E-07 2.08E-07 1.90E-07
  1.10E-07 2.60E-07 2.03E-07 2.27E-07 1.12E-07 1.23E-07 3.39E-05 3.18E-05
  3.39E-05 3.40E-05 7.82E-06 1.18E-05 6.10E-05 7.01E-05 1.11E-05 1.29E-05
  2.70E-05 4.22E-05 3.85E-05 3.73E-05 3.26E-05 3.14E-05 4.25E-05 2.42E-05
  3.10E-05 8.44E-06 7.36E-06 2.66E-05 9.53E-06 9.08E-05 9.63E-05 1.56E-04
  1.20E-04 1.46E-04 2.41E-05 9.54E-06 1.91E-05 4.67E-05 7.11E-05 1.65E-04
  1.20E-04 4.80E-05 2.69E-05 3.88E-05 3.32E-05 3.32E-05 3.60E-05 1.84E-05
  6.72E-05 4.56E-05 1.48E-04 1.43E-04 3.20E-05 1.60E-04 1.65E-04 2.42E-04
  2.49E-04 3.60E-05 1.68E-04 1.93E-04 2.90E-04 1.96E-01-1.00E-01-1.00E-01

 Fourteen components of 2nd-order total energy (hartree) are
 1,2,3: 0th-order hamiltonian combined with 1st-order wavefunctions
     kin0=   7.93404909E+04 eigvalue=   6.07587921E+02  local=  -2.29754161E+04
 4,5,6: 1st-order hamiltonian combined with 1st and 0th-order wfs
 loc psp =  -7.51216088E+04  Hartree=   2.72266389E+04     xc=  -5.54334586E+03
 note that "loc psp" includes a xc core correction that could be resolved
 7,8,9: eventually, occupation + non-local contributions
    edocc=   1.27073849E+02     enl0=  -1.05485346E+03   enl1=  -7.90776120E+04
 10: eventually, PAW "on-site" Hxc contribution: epaw1=   2.17989596E-01
 1-10 gives the relaxation energy (to be shifted if some occ is /=2.0)
   erelax=  -7.64708266E+04
 11,12,13 Non-relaxation  contributions : frozen-wavefunctions and Ewald
 fr.local=   4.08378243E+04 fr.nonlo=   3.63840978E+04  Ewald=  -6.22707873E+02
 14,15 Frozen wf xc core corrections (1) and (2)
 frxc 1  =  -1.71774844E-04  frxc 2 =   7.95058002E-01
 16 Contribution from 1st-order change of wavefunctions overlap
 eovl1 =   6.08864794E+02
 Resulting in :
 2DEtotal=    0.1291824809E+03 Ha. Also 2DEtotal=    0.351523407483E+04 eV
    (2DErelax=   -7.6470826624E+04 Ha. 2DEnonrelax=    7.6600009105E+04 Ha)
    (  non-var. 2DEtotal :    1.0926348108E+02 Ha)

================================================================================

 ---- first-order wavefunction calculations are completed ----


 ==> Compute Derivative Database <==
  
  2nd-order matrix (non-cartesian coordinates, masses not included,
   asr not included )
     j1       j2             matrix element
  dir pert dir pert     real part     imaginary part
  
   1    1   2    1         0.0000000000         0.0000000000
   1    1   3    1        -0.0000000000        -0.0000000000
   1    1   2    2        -0.0000000000        -0.0000000000
   1    1   3    2        -0.0000000000         0.0000000000
   1    1   2    3         0.0000000000         0.0000000000
   1    1   3    3        -0.0000000000         0.0000000000
   1    1   2    4        -0.0000000000        -0.0000000000
   1    1   3    4         0.0000000000        -0.0000000000
   1    1   2    5         0.0000000000         0.0000000000
   1    1   3    5         0.0000000000        -0.0000000000
   1    1   2    6        -0.0000000000        -0.0000000000
   1    1   3    6        -0.0000000000         0.0000000000
   1    1   2    7        -0.0000000000        -0.0000000000
   1    1   3    7         0.0000000000        -0.0000000000
   1    1   2    8         0.0000000000         0.0000000000
   1    1   3    8         0.0000000000        -0.0000000000
   1    1   2    9        -0.0000000000         0.0000000000
   1    1   3    9         0.0000000000         0.0000000000
   1    1   2   10         0.0000000000         0.0000000000
   1    1   3   10         0.0000000000        -0.0000000000
   1    1   2   11        -0.0000000000        -0.0000000000
   1    1   3   11         0.0000000000        -0.0000000000
   1    1   2   12         0.0000000000         0.0000000000
   1    1   3   12        -0.0000000000        -0.0000000000
   1    1   2   13        -0.0000000000        -0.0000000000
   1    1   3   13         0.0000000000        -0.0000000000
   1    1   2   14        -0.0000000000        -0.0000000000
   1    1   3   14        -0.0000000000         0.0000000000
   1    1   2   15         0.0000000000         0.0000000000
   1    1   3   15         0.0000000000        -0.0000000000
   1    1   2   16        -0.0000000000        -0.0000000000
   1    1   3   16        -0.0000000000         0.0000000000
   1    1   2   17         0.0000000000        -0.0000000000
   1    1   3   17         0.0000000000         0.0000000000
   1    1   2   18        -0.0000000000         0.0000000000
   1    1   3   18        -0.0000000000         0.0000000000
   1    1   2   19         0.0000000000         0.0000000000
   1    1   3   19         0.0000000000         0.0000000000
   1    1   2   20        -0.0000000000         0.0000000000
   1    1   3   20        -0.0000000000         0.0000000000
   1    1   2   21         0.0000000000         0.0000000000
   1    1   3   21        -0.0000000000        -0.0000000000
   1    1   2   22        -0.0000000000         0.0000000000
   1    1   3   22         0.0000000000         0.0000000000
   1    1   2   23         0.0000000000         0.0000000000
   1    1   3   23         0.0000000000        -0.0000000000
   1    1   2   24        -0.0000000000         0.0000000000
   1    1   3   24         0.0000000000         0.0000000000
   1    1   2   25        -0.0000000000         0.0000000000
   1    1   3   25         0.0000000000         0.0000000000
   1    1   2   26        -0.0000000000         0.0000000000
   1    1   3   26        -0.0000000000         0.0000000000
   1    1   2   27         0.0000000000        -0.0000000000
   1    1   3   27        -0.0000000000        -0.0000000000
   1    1   2   28         0.0000000000        -0.0000000000
   1    1   3   28         0.0000000000         0.0000000000
   1    1   2   29         0.0000000000         0.0000000000
   1    1   3   29        -0.0000000000         0.0000000000
  
   2    1   1    1         0.0000000000         0.0000000000
   2    1   3    1         8.3229505906         2.0859126944
   2    1   1    2        -0.0000000000        -0.0000000000
   2    1   1    3         0.0000000000         0.0000000000
   2    1   1    4        -0.0000000000        -0.0000000000
   2    1   1    5         0.0000000000         0.0000000000
   2    1   1    6        -0.0000000000        -0.0000000000
   2    1   1    7        -0.0000000000        -0.0000000000
   2    1   1    8         0.0000000000         0.0000000000
   2    1   1    9        -0.0000000000         0.0000000000
   2    1   1   10         0.0000000000         0.0000000000
   2    1   1   11        -0.0000000000        -0.0000000000
   2    1   1   12         0.0000000000         0.0000000000
   2    1   1   13        -0.0000000000        -0.0000000000
   2    1   1   14        -0.0000000000        -0.0000000000
   2    1   1   15         0.0000000000         0.0000000000
   2    1   1   16        -0.0000000000        -0.0000000000
   2    1   1   17         0.0000000000        -0.0000000000
   2    1   1   18        -0.0000000000         0.0000000000
   2    1   1   19         0.0000000000         0.0000000000
   2    1   1   20        -0.0000000000         0.0000000000
   2    1   1   21         0.0000000000         0.0000000000
   2    1   1   22        -0.0000000000         0.0000000000
   2    1   1   23         0.0000000000         0.0000000000
   2    1   1   24        -0.0000000000         0.0000000000
   2    1   1   25        -0.0000000000         0.0000000000
   2    1   1   26        -0.0000000000         0.0000000000
   2    1   1   27         0.0000000000        -0.0000000000
   2    1   3   27         8.3225525252        -3.2337731968
   2    1   1   28         0.0000000000        -0.0000000000
   2    1   1   29         0.0000000000         0.0000000000
  
   3    1   1    1        -0.0000000000         0.0000000000
   3    1   2    1         8.3229505906        -2.0859126944
   3    1   3    1       109.2634810815         0.0000000000
   3    1   1    2        -0.0000000000         0.0000000000
   3    1   2    2         0.2262908136        -8.0910226699
   3    1   3    2        10.7343251160        -2.4075615852
   3    1   1    3        -0.0000000000         0.0000000000
   3    1   2    3         6.3381488939        -1.9681324175
   3    1   3    3       -14.0413473337        22.3664641909
   3    1   1    4         0.0000000000         0.0000000000
   3    1   2    4         8.3210604604         0.4858066282
   3    1   3    4       -11.2639408187         0.0025242813
   3    1   1    5         0.0000000000        -0.0000000000
   3    1   2    5        11.2033393395         2.8834606105
   3    1   3    5         7.8649186804         0.4223159299
   3    1   1    6         0.0000000000        -0.0000000000
   3    1   2    6         9.7228722539         1.4074221524
   3    1   3    6        -7.1470627931        15.4775002308
   3    1   1    7         0.0000000000        -0.0000000000
   3    1   2    7         8.3181912355         1.2768094015
   3    1   3    7       -19.3909327968         0.0043743808
   3    1   1    8        -0.0000000000        -0.0000000000
   3    1   2    8        10.5364622970         2.2165583188
   3    1   3    8         8.7553721247        -0.4478412413
   3    1   1    9        -0.0000000000         0.0000000000
   3    1   2    9         8.3189052783         2.7288804521
   3    1   3    9        16.3866347771         0.0065092789
   3    1   1   10         0.0000000000        -0.0000000000
   3    1   2   10        10.3435467890         2.0224418536
   3    1   3   10        13.5771425212        -5.2526179434
   3    1   1   11        -0.0000000000         0.0000000000
   3    1   2   11        11.5047120751         3.1843566161
   3    1   3   11        17.5388120066        -9.1880102208
   3    1   1   12        -0.0000000000        -0.0000000000
   3    1   2   12         8.3203120788         2.3104830930
   3    1   3   12        21.4384632217         0.0111218348
   3    1   1   13        -0.0000000000         0.0000000000
   3    1   2   13         9.6352709416         1.3137097571
   3    1   3   13        14.8832383414        -6.5452795277
   3    1   1   14         0.0000000000        -0.0000000000
   3    1   2   14         8.3213214764         0.9102979214
   3    1   3   14        16.6471835169         0.0008899859
   3    1   1   15         0.0000000000         0.0000000000
   3    1   2   15         8.9479209265         0.6254225346
   3    1   3   15        14.0000482620        -5.6806547860
   3    1   1   16        -0.0000000000         0.0000000000
   3    1   2   16         9.3892195978         1.0635968986
   3    1   3   16        17.3740323106        -9.0516291424
   3    1   1   17         0.0000000000         0.0000000000
   3    1   2   17         8.3216568234         0.1727152009
   3    1   3   17        15.9154638261        -0.0032875670
   3    1   1   18        -0.0000000000        -0.0000000000
   3    1   2   18         8.3978072995         0.0760493412
   3    1   3   18        12.4919811424        -4.1727370562
   3    1   1   19         0.0000000000         0.0000000000
   3    1   2   19         8.3213894944        -0.3340429066
   3    1   3   19        11.4396131777        -0.0053890949
   3    1   1   20        -0.0000000000         0.0000000000
   3    1   2   20         8.0785940820        -0.2428670611
   3    1   3   20        10.4858627569        -2.1725765601
   3    1   1   21         0.0000000000         0.0000000000
   3    1   2   21         7.9082932893        -0.4157884285
   3    1   3   21        11.9772860242        -3.6721587105
   3    1   1   22         0.0000000000         0.0000000000
   3    1   2   22         8.3209026292        -0.9089490646
   3    1   3   22        11.2522051583        -0.0115222308
   3    1   1   23         0.0000000000         0.0000000000
   3    1   2   23         7.8878828945        -0.4318665688
   3    1   3   23        11.1047877388        -2.7872762929
   3    1   1   24         0.0000000000        -0.0000000000
   3    1   2   24         8.3218696955        -1.2618775658
   3    1   3   24        13.1053227351        -0.0057218752
   3    1   1   25        -0.0000000000        -0.0000000000
   3    1   2   25         7.4550907636        -0.8634898558
   3    1   3   25        15.6917546302        -7.3563966752
   3    1   1   26         0.0000000000         0.0000000000
   3    1   2   26         7.2432092443        -1.0730095060
   3    1   3   26        16.3085427343        -8.0057831365
   3    1   1   27        -0.0000000000        -0.0000000000
   3    1   2   27         8.3225525252        -3.2337731968
   3    1   3   27        21.0355598116        -0.0050961241
   3    1   1   28         0.0000000000        -0.0000000000
   3    1   2   28         7.5393431721        -0.7778146860
   3    1   3   28        16.5106883467        -8.2124677828
   3    1   1   29        -0.0000000000        -0.0000000000
   3    1   2   29         6.5833741814        -1.7274946873
   3    1   3   29        22.5312856474       -14.2328945626
  
   1    2   2    1        -0.0000000000         0.0000000000
   1    2   3    1        -0.0000000000        -0.0000000000
   1    2   2    2         0.0000000000         0.0000000000
   1    2   3    2        -0.0000000000         0.0000000000
   1    2   2    3        -0.0000000000         0.0000000000
   1    2   3    3         0.0000000000        -0.0000000000
   1    2   2    4        -0.0000000000         0.0000000000
   1    2   3    4        -0.0000000000        -0.0000000000
   1    2   2    5        -0.0000000000        -0.0000000000
   1    2   3    5         0.0000000000         0.0000000000
   1    2   2    6         0.0000000000         0.0000000000
   1    2   3    6         0.0000000000        -0.0000000000
   1    2   2    7        -0.0000000000         0.0000000000
   1    2   3    7        -0.0000000000        -0.0000000000
   1    2   2    8         0.0000000000        -0.0000000000
   1    2   3    8        -0.0000000000        -0.0000000000
   1    2   2    9        -0.0000000000         0.0000000000
   1    2   3    9         0.0000000000         0.0000000000
   1    2   2   10        -0.0000000000         0.0000000000
   1    2   3   10         0.0000000000        -0.0000000000
   1    2   2   11         0.0000000000         0.0000000000
   1    2   3   11        -0.0000000000         0.0000000000
   1    2   2   12        -0.0000000000         0.0000000000
   1    2   3   12         0.0000000000         0.0000000000
   1    2   2   13         0.0000000000         0.0000000000
   1    2   3   13        -0.0000000000         0.0000000000
   1    2   2   14        -0.0000000000         0.0000000000
   1    2   3   14         0.0000000000         0.0000000000
   1    2   2   15        -0.0000000000         0.0000000000
   1    2   3   15         0.0000000000         0.0000000000
   1    2   2   16         0.0000000000         0.0000000000
   1    2   3   16         0.0000000000        -0.0000000000
   1    2   2   17         0.0000000000        -0.0000000000
   1    2   3   17         0.0000000000         0.0000000000
   1    2   2   18         0.0000000000        -0.0000000000
   1    2   3   18         0.0000000000        -0.0000000000
   1    2   2   19         0.0000000000        -0.0000000000
   1    2   3   19         0.0000000000        -0.0000000000
   1    2   2   20        -0.0000000000         0.0000000000
   1    2   3   20        -0.0000000000        -0.0000000000
   1    2   2   21        -0.0000000000        -0.0000000000
   1    2   3   21        -0.0000000000         0.0000000000
   1    2   2   22         0.0000000000        -0.0000000000
   1    2   3   22        -0.0000000000        -0.0000000000
   1    2   2   23        -0.0000000000        -0.0000000000
   1    2   3   23        -0.0000000000        -0.0000000000
   1    2   2   24        -0.0000000000        -0.0000000000
   1    2   3   24        -0.0000000000        -0.0000000000
   1    2   2   25         0.0000000000         0.0000000000
   1    2   3   25         0.0000000000         0.0000000000
   1    2   2   26        -0.0000000000         0.0000000000
   1    2   3   26         0.0000000000        -0.0000000000
   1    2   2   27         0.0000000000        -0.0000000000
   1    2   3   27         0.0000000000         0.0000000000
   1    2   2   28        -0.0000000000        -0.0000000000
   1    2   3   28        -0.0000000000        -0.0000000000
   1    2   2   29         0.0000000000        -0.0000000000
   1    2   3   29         0.0000000000         0.0000000000
  
   2    2   1    1        -0.0000000000         0.0000000000
   2    2   3    1         0.2262908136         8.0910226699
   2    2   1    2         0.0000000000         0.0000000000
   2    2   1    3        -0.0000000000         0.0000000000
   2    2   1    4        -0.0000000000         0.0000000000
   2    2   1    5        -0.0000000000        -0.0000000000
   2    2   1    6         0.0000000000         0.0000000000
   2    2   1    7        -0.0000000000         0.0000000000
   2    2   1    8         0.0000000000        -0.0000000000
   2    2   1    9        -0.0000000000         0.0000000000
   2    2   1   10        -0.0000000000         0.0000000000
   2    2   1   11         0.0000000000         0.0000000000
   2    2   1   12        -0.0000000000         0.0000000000
   2    2   1   13         0.0000000000         0.0000000000
   2    2   1   14        -0.0000000000         0.0000000000
   2    2   1   15        -0.0000000000         0.0000000000
   2    2   1   16         0.0000000000         0.0000000000
   2    2   1   17         0.0000000000        -0.0000000000
   2    2   1   18         0.0000000000        -0.0000000000
   2    2   1   19         0.0000000000        -0.0000000000
   2    2   1   20        -0.0000000000         0.0000000000
   2    2   1   21        -0.0000000000        -0.0000000000
   2    2   1   22         0.0000000000        -0.0000000000
   2    2   1   23        -0.0000000000        -0.0000000000
   2    2   1   24        -0.0000000000        -0.0000000000
   2    2   1   25         0.0000000000         0.0000000000
   2    2   1   26        -0.0000000000         0.0000000000
   2    2   1   27         0.0000000000        -0.0000000000
   2    2   3   27         0.7778146860         7.5393431721
   2    2   1   28        -0.0000000000        -0.0000000000
   2    2   1   29         0.0000000000        -0.0000000000
  
   3    2   1    1        -0.0000000000        -0.0000000000
   3    2   3    1        10.7343251160         2.4075615852
   3    2   1    2        -0.0000000000         0.0000000000
   3    2   1    3         0.0000000000        -0.0000000000
   3    2   1    4        -0.0000000000        -0.0000000000
   3    2   1    5         0.0000000000         0.0000000000
   3    2   1    6         0.0000000000        -0.0000000000
   3    2   1    7        -0.0000000000        -0.0000000000
   3    2   1    8        -0.0000000000        -0.0000000000
   3    2   1    9         0.0000000000         0.0000000000
   3    2   1   10         0.0000000000        -0.0000000000
   3    2   1   11        -0.0000000000         0.0000000000
   3    2   1   12         0.0000000000         0.0000000000
   3    2   1   13        -0.0000000000         0.0000000000
   3    2   1   14         0.0000000000         0.0000000000
   3    2   1   15         0.0000000000         0.0000000000
   3    2   1   16         0.0000000000        -0.0000000000
   3    2   1   17         0.0000000000         0.0000000000
   3    2   1   18         0.0000000000        -0.0000000000
   3    2   1   19         0.0000000000        -0.0000000000
   3    2   1   20        -0.0000000000        -0.0000000000
   3    2   1   21        -0.0000000000         0.0000000000
   3    2   1   22        -0.0000000000        -0.0000000000
   3    2   1   23        -0.0000000000        -0.0000000000
   3    2   1   24        -0.0000000000        -0.0000000000
   3    2   1   25         0.0000000000         0.0000000000
   3    2   1   26         0.0000000000        -0.0000000000
   3    2   1   27         0.0000000000         0.0000000000
   3    2   3   27         8.2124677828        16.5106883467
   3    2   1   28        -0.0000000000        -0.0000000000
   3    2   1   29         0.0000000000         0.0000000000
  
   1    3   2    1         0.0000000000        -0.0000000000
   1    3   3    1        -0.0000000000        -0.0000000000
   1    3   2    2        -0.0000000000        -0.0000000000
   1    3   3    2         0.0000000000         0.0000000000
   1    3   2    3        -0.0000000000         0.0000000000
   1    3   3    3         0.0000000000         0.0000000000
   1    3   2    4         0.0000000000        -0.0000000000
   1    3   3    4         0.0000000000         0.0000000000
   1    3   2    5        -0.0000000000        -0.0000000000
   1    3   3    5         0.0000000000         0.0000000000
   1    3   2    6         0.0000000000        -0.0000000000
   1    3   3    6        -0.0000000000        -0.0000000000
   1    3   2    7        -0.0000000000         0.0000000000
   1    3   3    7        -0.0000000000        -0.0000000000
   1    3   2    8         0.0000000000        -0.0000000000
   1    3   3    8         0.0000000000         0.0000000000
   1    3   2    9         0.0000000000        -0.0000000000
   1    3   3    9         0.0000000000         0.0000000000
   1    3   2   10        -0.0000000000        -0.0000000000
   1    3   3   10         0.0000000000         0.0000000000
   1    3   2   11         0.0000000000         0.0000000000
   1    3   3   11        -0.0000000000        -0.0000000000
   1    3   2   12         0.0000000000        -0.0000000000
   1    3   3   12        -0.0000000000        -0.0000000000
   1    3   2   13        -0.0000000000         0.0000000000
   1    3   3   13         0.0000000000        -0.0000000000
   1    3   2   14         0.0000000000        -0.0000000000
   1    3   3   14        -0.0000000000        -0.0000000000
   1    3   2   15        -0.0000000000        -0.0000000000
   1    3   3   15         0.0000000000         0.0000000000
   1    3   2   16        -0.0000000000         0.0000000000
   1    3   3   16        -0.0000000000        -0.0000000000
   1    3   2   17        -0.0000000000        -0.0000000000
   1    3   3   17         0.0000000000        -0.0000000000
   1    3   2   18        -0.0000000000         0.0000000000
   1    3   3   18         0.0000000000         0.0000000000
   1    3   2   19        -0.0000000000         0.0000000000
   1    3   3   19         0.0000000000         0.0000000000
   1    3   2   20        -0.0000000000         0.0000000000
   1    3   3   20        -0.0000000000        -0.0000000000
   1    3   2   21         0.0000000000         0.0000000000
   1    3   3   21        -0.0000000000        -0.0000000000
   1    3   2   22        -0.0000000000         0.0000000000
   1    3   3   22         0.0000000000         0.0000000000
   1    3   2   23         0.0000000000         0.0000000000
   1    3   3   23         0.0000000000         0.0000000000
   1    3   2   24        -0.0000000000         0.0000000000
   1    3   3   24         0.0000000000         0.0000000000
   1    3   2   25        -0.0000000000         0.0000000000
   1    3   3   25         0.0000000000         0.0000000000
   1    3   2   26        -0.0000000000         0.0000000000
[...]
- newkpt(excl. rwwf   )          3.548   0.0      3.549   0.0             -1
- nonlop(forstr)                 3.465   0.0      3.473   0.0             60
- vtorho3:MPI                    2.456   0.0      2.455   0.0             18
- nhatgrid                       1.154   0.0      1.154   0.0              1
- mkrho/=                        0.875   0.0      0.874   0.0              2
- fourwf%(den)                   0.780   0.0      0.781   0.0             60
- vtorho3-kpt loop               0.699   0.0      0.711   0.0             18
- getghc-other                   0.582   0.0      0.518   0.0             -1
- abinit(2)                      0.502   0.0      0.502   0.0              1
- wfsinp(excl. calls)            0.387   0.0      0.403   0.0              3
- pawinit                        0.338   0.0      0.339   0.0              2
- invars2                        0.249   0.0      0.249   0.0              1
- pawmkrho:symrhoij              0.246   0.0      0.245   0.0            105
- respfn:pawatm2ff               0.235   0.0      0.235   0.0              1
- setsym                         0.078   0.0      0.077   0.0              2
- initwf(before rwwf)            0.014   0.0      0.024   0.0              3
- status                         0.014   0.0      0.015   0.0            640
- vtorho:synchro                 0.011   0.0      0.012   0.0              3
- kpgsph                         0.008   0.0      0.008   0.0             51
- inwffil(excl. calls)           0.008   0.0      0.007   0.0              4
- scfcv3  (1)                    0.003   0.0      0.002   0.0              1
- vtowfk3 (3)                    0.001   0.0      0.001   0.0             18
- nstdy3:synchro                 0.000   0.0      0.000   0.0              1
- vtowfk(ssdiag)                 0.000   0.0      0.000   0.0             -1
- initwf(after rwwf)             0.000   0.0      0.000   0.0              3
- 37   others                    0.000   0.0      0.000   0.0
-
- subtotal                    1330.719   3.8   1342.029   3.8

- For major independent code sections, cpu and wall times (sec),
- as well as % of the total time and number of calls 

- routine                         cpu     %       wall     %      number of calls 
-                                                                  (-1=no count)
- nstpaw3                    16089.893  46.3  16173.480  46.4             32
- nonlop(apply)               4510.255  13.0   4522.428  13.0          82540
- nonlop(forces)              3820.252  11.0   3837.748  11.0         218880
- projbd                      2963.945   8.5   2972.364   8.5         165656
- fourwf%(G->r)               2679.658   7.7   2694.123   7.7         218772
- fourwf%(pot)                2623.671   7.6   2630.769   7.5          99820
- vtorho3:synchro             2498.695   7.2   2500.317   7.2            576
- xc:pot/=fourdp              1113.383   3.2   1118.321   3.2         238880
- fourdp                       898.118   2.6    901.520   2.6          29472
- cgwf3-O(npw)                 654.216   1.9    654.160   1.9            -32
- pawmkrho                     530.853   1.5    533.166   1.5           3360
- vtowfk3 (1)                  529.340   1.5    530.821   1.5            576
- pspini                       427.969   1.2    429.521   1.2             32
- pawdenpot                    415.840   1.2    416.927   1.2           1184
- dyxc13                       381.411   1.1    381.501   1.1             32
- pawdij                       231.577   0.7    232.326   0.7            608
- vtowfk3(contrib)             218.734   0.6    219.142   0.6            -32
- symrhg(no FFT)               127.426   0.4    128.057   0.4           3392
- newkpt(excl. rwwf   )        115.160   0.3    115.223   0.3            -32
- nonlop(forstr)               110.502   0.3    110.580   0.3           1920
- vtorho3 (1)                  103.503   0.3    103.914   0.3            576
- vtorho3:MPI                   79.434   0.2     80.732   0.2            576
- nhatgrid                      35.006   0.1     35.014   0.1             32
- mkrho/=                       30.274   0.1     30.285   0.1             64
- fourwf%(den)                  26.096   0.1     26.104   0.1           1920
- vtorho3-kpt loop              23.295   0.1     23.325   0.1            576
- getghc-other                  18.925   0.1     17.683   0.1            -32
- abinit(2)                     15.031   0.0     16.014   0.0             32
- wfsinp(excl. calls)           14.199   0.0     14.403   0.0             96
- pawinit                       10.792   0.0     10.812   0.0             64
- invars2                        7.912   0.0      8.652   0.0             32
- respfn:pawatm2ff               7.471   0.0      7.475   0.0             32
- pawmkrho:symrhoij              7.332   0.0      7.395   0.0           3360
- nstdy3:synchro                 3.898   0.0      3.892   0.0             32
- setsym                         2.406   0.0      2.419   0.0             64
- initwf(before rwwf)            0.623   0.0      0.841   0.0             96
- status                         0.506   0.0      0.500   0.0          20387
- vtorho:synchro                 0.359   0.0      0.363   0.0             96
- kpgsph                         0.284   0.0      0.291   0.0           1744
- inwffil(excl. calls)           0.200   0.0      0.208   0.0            128
- scfcv3  (1)                    0.084   0.0      0.079   0.0             32
- vtowfk3 (3)                    0.025   0.0      0.031   0.0            576
- initwf(after rwwf)             0.011   0.0      0.006   0.0             96
- vtowfk(ssdiag)                 0.000   0.0      0.000   0.0            -32
- 37   others                    0.000   0.0      0.000   0.0

- subtotal                   41328.562 118.9  41492.932 119.0

 Partitioning of abinit
- abinit                     34750.604 100.0  34878.555 100.0             32
 
- abinit(2)                     15.031   0.0     16.014   0.0             32
- indefo+macroin+invars2m       16.484   0.0     17.501   0.1             32
- driver                     34715.932  99.9  34841.613  99.9             32

- subtotal                   34750.604 100.0  34878.555 100.0

 Partitioning of driver
- driver                     34715.932  99.9  34841.613  99.9             32
 
- respfn                     34709.143  99.9  34834.815  99.9             32

- subtotal                   34715.932  99.9  34841.613  99.9

 Partitioning of respfn
- respfn                     34709.143  99.9  34834.815  99.9             32
 
- respfn(pspini)               427.976   1.2    429.531   1.2             32
- respfn(inwffil)               53.093   0.2     53.173   0.2             32
- respfn(frozen)               620.808   1.8    621.099   1.8             32
- respfn(dyxc13+bef.loper)     384.065   1.1    384.160   1.1             32
- loper3                     33160.853  95.4  33284.357  95.4             32

- subtotal                   34650.966  99.7  34776.629  99.7

 Partitioning of loper3
- loper3                     33160.853  95.4  33284.357  95.4             32
 
- loper3(inwffil)               84.226   0.2     84.775   0.2             96
- scfcv3                     32901.428  94.7  33024.205  94.7             32
- loper3(outwf)                 23.032   0.1     23.036   0.1             32
- (other)                      149.440   0.4    149.606   0.4             -1

- subtotal                   33160.853  95.4  33284.357  95.4

 Partitioning of scfcv3
- scfcv3                     32901.428  94.7  33024.205  94.7             32
 
- vtorho3                    15808.015  45.5  15844.125  45.4            576
- rhotov3                      113.901   0.3    114.158   0.3            608
- scfcv3-scprqt                 29.103   0.1     29.114   0.1            576
- newvtr3                      166.431   0.5    167.190   0.5            576
- nstdy3                     16089.896  46.3  16173.482  46.4             32
- nstpaw3                    16089.893  46.3  16173.480  46.4             32

- subtotal                   48297.410 139.0  48501.711 139.1

 Partitioning of vtorho3
- vtorho3                    15808.015  45.5  15844.125  45.4            576
 
- vtorho3 (1)                  103.503   0.3    103.914   0.3            576
- vtowfk3                    12954.868  37.3  12987.163  37.2            576
- vtorho3-kpt loop              23.295   0.1     23.325   0.1            576
- vtorho3:synchro             2498.695   7.2   2500.317   7.2            576
- vtorho3:MPI                   79.434   0.2     80.732   0.2            576
- vtorho3 (4)                   39.729   0.1     39.849   0.1            576
- pawmkrho                     530.853   1.5    533.166   1.5           3360

- subtotal                   16230.377  46.7  16268.466  46.6

 Partitioning of vtowfk3
- vtowfk3                    12954.868  37.3  12987.163  37.2            576
 
- vtowfk3 (1)                  529.340   1.5    530.821   1.5            576
- cgwf3                      11649.794  33.5  11678.469  33.5          17280
- fourwf%accrho3%vtowfk3       556.975   1.6    558.699   1.6          51732
- vtowfk3(contrib)             218.734   0.6    219.142   0.6            -32
- getgsc                       529.275   1.5    530.757   1.5            576

- subtotal                   13484.143  38.8  13517.920  38.8

 Partitioning of cgwf3
- cgwf3                      11649.794  33.5  11678.469  33.5          17280
 
- cgwf3-O(npw)                 654.216   1.9    654.160   1.9            -32
- getghc%cgwf3                6725.075  19.4   6742.005  19.3          82540
- projbd%cgwf3                2963.945   8.5   2972.364   8.5         165656
- nonlop%cgwf3 !2              878.782   2.5    881.065   2.5          51840
- fourwf%cgwf3                 427.775   1.2    428.875   1.2          17280

- subtotal                   11649.794  33.5  11678.469  33.5

 Partitioning of getghc
- getghc                      6725.075  19.4   6742.005  19.3          82540
 
- fourwf%getghc               2195.895   6.3   2201.894   6.3          82540
- nonlop%getghc               4510.255  13.0   4522.428  13.0          82540
- getghc-other                  18.925   0.1     17.683   0.1            -32

- subtotal                    6725.075  19.4   6742.005  19.3

 Partitioning of fourwf (upwards partitioning)
- fourwf                      5329.425  15.3   5350.997  15.3         320512
 
- fourwf%getghc               2195.895   6.3   2201.894   6.3          82540
- fourwf%cgwf3                 427.775   1.2    428.875   1.2          17280
- fourwf%accrho3%vtowfk3       556.975   1.6    558.699   1.6          51732
- fourwf%mkrho2                 26.096   0.1     26.104   0.1           1920
- fourwf%accrho3%nstpaw3      2122.683   6.1   2135.424   6.1         167040

- subtotal                    5329.425  15.3   5350.997  15.3

 Partitioning of mkrho (upwards partitioning)
- mkrho                         32.373   0.1     32.388   0.1             32
 
- mkrho%respfn                  32.373   0.1     32.388   0.1             32

- subtotal                      32.373   0.1     32.388   0.1

 Partitioning of inwffil
- inwffil                      137.294   0.4    137.926   0.4            128
 
- inwffil(call wfsinp)          21.884   0.1     22.444   0.1             96
- inwffil(call newkpt)         115.210   0.3    115.273   0.3            128

- subtotal                     137.294   0.4    137.925   0.4

 Partitioning of wfsinp
- wfsinp                        21.882   0.1     22.439   0.1             96
 
- wfsinp(call  initwf)           7.683   0.0      8.035   0.0             96
- wfsinp:synchro                14.194   0.0     14.398   0.0             96

- subtotal                      21.882   0.1     22.439   0.1

 Partitioning of initwf
- initwf                         7.680   0.0      8.031   0.0             96
 
- rwwf%initwf(RF)                7.044   0.0      7.184   0.0             96

- subtotal                       7.678   0.0      8.031   0.0

 Partitioning of newkpt
- newkpt                       115.198   0.3    115.264   0.3            128
 
- newkpt(call wfconv)           48.680   0.1     48.695   0.1            128
- newkpt(after loop   )         66.465   0.2     66.516   0.2            128

- subtotal                     115.160   0.3    115.223   0.3

 Partitioning of  fourdp (upwards partitioning)
- fourdp                       898.118   2.6    901.520   2.6          29472
 
- fourdp%(other)               898.118   2.6    901.520   2.6          29472

- subtotal                     898.118   2.6    901.520   2.6
-
-Synchronisation (=leave_test) and MPI calls 
- communic.MPI                6240.160  18.0   6260.293  17.9          22692
-
- scfcv :synchro                 0.013   0.0      0.007   0.0             32
- mkrho :synchro                 2.841   0.0      2.837   0.0             32
- vtorho:synchro                 0.359   0.0      0.363   0.0             96
- wfsinp:synchro                14.194   0.0     14.398   0.0             96
- mkrho :MPIrhor                 0.623   0.0      0.631   0.0             32
- newkpt:synchro                65.353   0.2     65.434   0.2            128
-
- subtotal                      83.383   0.2     83.670   0.2

 Additional information
- timana(1)                      0.001   0.0      0.001   0.0             32
- total timab                    0.000   0.0      0.000   0.0        1452975
- fourwf                      5329.425  15.3   5350.997  15.3         320512
- status                         0.506   0.0      0.500   0.0          20387
- newocc                        33.545   0.1     33.549   0.1             32
- nonlop(forstr)               110.502   0.3    110.580   0.3           1920
- nonlop(total)               8790.460  25.3   8821.419  25.3         320620
- fourwf%(G->r)               2679.658   7.7   2694.123   7.7         218772

 Additional information about PAW segments
- pawinit                       10.792   0.0     10.812   0.0             64
- pawmkrho                     530.853   1.5    533.166   1.5           3360
- scfcv:mknhat                   2.382   0.0      2.380   0.0             32
- nhatgrid                      35.006   0.1     35.014   0.1             32
- pawdenpot                    415.840   1.2    416.927   1.2           1184
- pawdij                       231.577   0.7    232.326   0.7            608
- respfn:pawatm2ff               7.471   0.0      7.475   0.0             32
- getgsc                       529.275   1.5    530.757   1.5            576
- nstpaw3                    16089.893  46.3  16173.480  46.4             32
- pawnstd2e                    829.833   2.4    833.990   2.4           2784


 Detailed analysis of some time consuming routines 
                                  tcpu    ncalls  tcpu/ncalls    ndata tcpu/ncalls/ndata
                                 (sec)                (msec)              (microsec)
- fourwf%(pot)                2623.671     99820      26.284    345600       0.076
- fourwf%(den)                  26.096      1920      13.592    172800       0.079
- fourdp                       898.118     29472      30.474    172800       0.176
- nonlop(apply)               4510.255     82540      54.643    243339       0.225
- nonlop(forces)              3820.252    218880      17.454    243339       0.072
- nonlop(forstr)               110.502      1920      57.553    243339       0.237
- projbd                      2963.945    165656      17.892   1006920       0.018
- xc:pot/=fourdp              1113.383    238880       4.661    172800       0.027

================================================================================

 Suggested references for the acknowledgment of ABINIT usage.

 The users of ABINIT have little formal obligations with respect to the ABINIT group
 (those specified in the GNU General Public License, http://www.gnu.org/copyleft/gpl.txt).
 However, it is common practice in the scientific literature,
 to acknowledge the efforts of people that have made the research possible.
 In this spirit, please find below suggested citations of work written by ABINIT developers,
 corresponding to implementations inside of ABINIT that you have used in the present run.
 Note also that it will be of great value to readers of publications presenting these results,
 to read papers enabling them to understand the theoretical formalism and details
 of the ABINIT implementation.
 For information on why they are suggested, see also http://www.abinit.org/about/?text=acknowledgments.

 [1] Implementation of the Projector Augmented-Wave Method in the ABINIT code.
 M. Torrent, F. Jollet, F. Bottin, G. Zerah, and X. Gonze Comput. Mat. Science 42, 337, (2008).
 Comment : PAW calculations. Strong suggestion to cite this paper.

 [2] Projector augmented-wave approach to density-functional perturbation theory.
 C. Audouze, F. Jollet, M. Torrent and X. Gonze, Phys. Rev. B 73, 235101 (2006).
 Comparison between projector augmented-wave and ultrasoft pseudopotential formalisms
 at the density-functional perturbation theory level.
 C. Audouze, F. Jollet, M. Torrent and X. Gonze, Phys. Rev. B 78, 035105 (2008).
 Comment : to be cited in case the computation of response function with PAW, i.e. (rfphon=1 or rfelfd=1) and usepaw=1.
 Strong suggestion to cite these papers.

 [3] First-principles responses of solids to atomic displacements and homogeneous electric fields:,
 implementation of a conjugate-gradient algorithm. X. Gonze, Phys. Rev. B55, 10337 (1997).
 Comment : Non-vanishing rfphon and/or rfelfd, in the norm-conserving case.

 [4] Dynamical matrices, Born effective charges, dielectric permittivity tensors, and ,
 interatomic force constants from density-functional perturbation theory,
 X. Gonze and C. Lee, Phys. Rev. B55, 10355 (1997).
 Comment : Non-vanishing rfphon and/or rfelfd, in the norm-conserving case.

 [5] ABINIT : First-principles approach of materials and nanosystem properties.
 X. Gonze, B. Amadon, P.-M. Anglade, J.-M. Beuken, F. Bottin, P. Boulanger, F. Bruneval,
 D. Caliste, R. Caracas, M. Cote, T. Deutsch, L. Genovese, Ph. Ghosez, M. Giantomassi
 S. Goedecker, D.R. Hamann, P. Hermet, F. Jollet, G. Jomard, S. Leroux, M. Mancini, S. Mazevet,
 M.J.T. Oliveira, G. Onida, Y. Pouillon, T. Rangel, G.-M. Rignanese, D. Sangalli, R. Shaltaf,
 M. Torrent, M.J. Verstraete, G. Zerah, J.W. Zwanziger
 Computer Phys. Comm. 180, 2582-2615 (2009).
 Comment : the third generic paper describing the ABINIT project.
 Note that a version of this paper, that is not formatted for Computer Phys. Comm. 
 is available at http://www.abinit.org/about/ABINIT_CPC_v10.pdf .
 The licence allows the authors to put it on the Web.

 [6] A brief introduction to the ABINIT software package.
 X. Gonze, G.-M. Rignanese, M. Verstraete, J.-M. Beuken, Y. Pouillon, R. Caracas, F. Jollet,
 M. Torrent, G. Zerah, M. Mikami, Ph. Ghosez, M. Veithen, J.-Y. Raty, V. Olevano, F. Bruneval,
 L. Reining, R. Godby, G. Onida, D.R. Hamann, and D.C. Allan.
 Z. Kristallogr. 220, 558-562 (2005).
 Comment : the second generic paper describing the ABINIT project. Note that this paper
 should be cited especially if you are using the GW part of ABINIT, as several authors
 of this part are not in the list of authors of the first or third paper.
 The .pdf of the latter paper is available at http://www.abinit.org/about/zfk_0505-06_558-562.pdf.
 Note that it should not redistributed (Copyright by Oldenburg Wissenshaftverlag,
 the licence allows the authors to put it on the Web).
-
- Proc.   0 individual time (sec): cpu=       1081.6  wall=       1090.0

================================================================================

 Calculation completed.
.Delivered    5 WARNINGs and   5 COMMENTs to log file.
+Overall time at end (sec) : cpu=      34751.0  wall=      34879.0
