
.Version 6.13.2 of ABINIT 
.(MPI version, prepared for a x86_64_linux_gnu4.6 computer) 

.Copyright (C) 1998-2014 ABINIT group . 
 ABINIT comes with ABSOLUTELY NO WARRANTY.
 It is free software, and you are welcome to redistribute it
 under certain conditions (GNU General Public License,
 see ~abinit/COPYING or http://www.gnu.org/copyleft/gpl.txt).

 ABINIT is a project of the Universite Catholique de Louvain,
 Corning Inc. and other collaborators, see ~abinit/doc/developers/contributors.txt .
 Please read ~abinit/doc/users/acknowledgments.html for suggested
 acknowledgments of the ABINIT effort.
 For more information, see http://www.abinit.org .

.Starting date : Thu  8 Mar 2012.
- ( at 14h18 )
  
- input  file    -> tdfpt_03.in
- output file    -> tdfpt_03.outI
- root for input  files -> tdfpt_03.i
- root for output files -> tdfpt_03.o


 Symmetries : space group Pm m m (# 47); Bravais oP (primitive ortho.)
================================================================================
 Values of the parameters that define the memory need of the present run
   intxc =         0  ionmov =         0    iscf =         3 xclevel =         1
  lmnmax =        18   lnmax =         6   mband =       120  mffmem =         1
P  mgfft =       192   mkmem =         1 mpssoang=         3     mpw =      1404
  mqgrid =     13047   natom =        29    nfft =    172800    nkpt =         4
  nloalg =         4  nspden =         1 nspinor =         1  nsppol =         1
    nsym =         8  n1xccc =         1  ntypat =         3  occopt =         7
 PAW method is used; the additional fine FFT grid is defined by:
   mgfftf=       270    nfftf =    432000
================================================================================
P This job should need less than                      94.191 Mbytes of memory.
  Rough estimation (10% accuracy) of disk space for files :
  WF disk file :     10.285 Mbytes ; DEN or POT disk file :      3.298 Mbytes.
================================================================================

--------------------------------------------------------------------------------
------------- Echo of variables that govern the present computation ------------
--------------------------------------------------------------------------------
-
- outvars: echo of selected default values                                      
-   accesswff0 =  0 , fftalg0 =312 , wfoptalg0 = 10
-
- outvars: echo of global parameters not present in the input file              
-   nproc =   24
-
 -outvars: echo values of preprocessed input variables --------
        accesswff           1
            acell      7.5589045315E+00  7.5589045315E+00  5.2912331721E+01 Bohr
              amu      1.37327000E+02  4.78800000E+01  1.59994000E+01
           diemix      6.00000000E-01
             ecut      1.50000000E+01 Hartree
           fftalg         401
      fft_opt_lob           2
           iprcch           6
             iscf           3
              ixc           7
              kpt      1.25000000E-01  1.25000000E-01  5.00000000E-01
                       3.75000000E-01  1.25000000E-01  5.00000000E-01
                       1.25000000E-01  3.75000000E-01  5.00000000E-01
                       3.75000000E-01  3.75000000E-01  5.00000000E-01
          kptrlen      3.02356181E+01
         kptrlatt      4  0  0   0  4  0   0  0  1
P           mkmem           1
            natom          29
            nband         120
            ngfft          30      30     192
          ngfftdg          40      40     270
             nkpt           4
           npband           6
            npkpt           4
            nstep         100
             nsym           8
           ntypat           3
              occ      2.000000  2.000000  2.000000  2.000000  2.000000  2.000000
                       2.000000  2.000000  2.000000  2.000000  2.000000  2.000000
                       2.000000  2.000000  2.000000  2.000000  2.000000  2.000000
                       2.000000  2.000000  2.000000  2.000000  2.000000  2.000000
                       2.000000  2.000000  2.000000  2.000000  2.000000  2.000000
                       2.000000  2.000000  2.000000  2.000000  2.000000  2.000000
                       2.000000  2.000000  2.000000  2.000000  2.000000  2.000000
                       2.000000  2.000000  2.000000  2.000000  2.000000  2.000000
                       2.000000  2.000000  2.000000  2.000000  2.000000  2.000000
                       2.000000  2.000000  2.000000  2.000000  2.000000  2.000000
                       2.000000  2.000000  2.000000  2.000000  2.000000  2.000000
                       2.000000  2.000000  2.000000  2.000000  2.000000  2.000000
                       2.000000  2.000000  2.000000  2.000000  2.000000  2.000000
                       2.000000  2.000000  2.000000  2.000000  2.000000  2.000000
                       2.000000  2.000000  2.000000  2.000000  2.000000  2.000000
                       2.000000  2.000000  2.000000  2.000000  2.000000  2.000000
                       2.000000  2.000000  2.000000  2.000000  2.000000  2.000000
                       2.000000  2.000000  2.000000  2.000000  2.000000  2.000000
                       2.000000  2.000000  2.000000  2.000000  2.000000  2.000000
                       2.000000  2.000000  0.000000  0.000000  0.000000  0.000000
                       2.000000  2.000000  2.000000  2.000000  2.000000  2.000000
                       2.000000  2.000000  2.000000  2.000000  2.000000  2.000000
                       2.000000  2.000000  2.000000  2.000000  2.000000  2.000000
                       2.000000  2.000000  2.000000  2.000000  2.000000  2.000000
                       2.000000  2.000000  2.000000  2.000000  2.000000  2.000000
                       2.000000  2.000000  2.000000  2.000000  2.000000  2.000000
                       2.000000  2.000000  2.000000  2.000000  2.000000  2.000000
                       2.000000  2.000000  2.000000  2.000000  2.000000  2.000000
                       2.000000  2.000000  2.000000  2.000000  2.000000  2.000000
                       2.000000  2.000000  2.000000  2.000000  2.000000  2.000000
                       2.000000  2.000000  2.000000  2.000000  2.000000  2.000000
                       2.000000  2.000000  2.000000  2.000000  2.000000  2.000000
                       2.000000  2.000000  2.000000  2.000000  2.000000  2.000000
                       2.000000  2.000000  2.000000  2.000000  2.000000  2.000000
                       2.000000  2.000000  2.000000  2.000000  2.000000  2.000000
                       2.000000  2.000000  2.000000  2.000000  2.000000  2.000000
                       2.000000  2.000000  2.000000  2.000000  2.000000  2.000000
                       2.000000  2.000000  2.000000  2.000000  2.000000  2.000000
                       2.000000  2.000000  2.000000  2.000000  2.000000  2.000000
                       2.000000  2.000000  0.000000  0.000000  0.000000  0.000000
                       2.000000  2.000000  2.000000  2.000000  2.000000  2.000000
                       2.000000  2.000000  2.000000  2.000000  2.000000  2.000000
                       2.000000  2.000000  2.000000  2.000000  2.000000  2.000000
                       2.000000  2.000000  2.000000  2.000000  2.000000  2.000000
                       2.000000  2.000000  2.000000  2.000000  2.000000  2.000000
                       2.000000  2.000000  2.000000  2.000000  2.000000  2.000000
                       2.000000  2.000000  2.000000  2.000000  2.000000  2.000000
                       2.000000  2.000000  2.000000  2.000000  2.000000  2.000000
                       2.000000  2.000000  2.000000  2.000000  2.000000  2.000000
                       2.000000  2.000000  2.000000  2.000000  2.000000  2.000000
                       2.000000  2.000000  2.000000  2.000000  2.000000  2.000000
                       2.000000  2.000000  2.000000  2.000000  2.000000  2.000000
                       2.000000  2.000000  2.000000  2.000000  2.000000  2.000000
                       2.000000  2.000000  2.000000  2.000000  2.000000  2.000000
                       2.000000  2.000000  2.000000  2.000000  2.000000  2.000000
                       2.000000  2.000000  2.000000  2.000000  2.000000  2.000000
                       2.000000  2.000000  2.000000  2.000000  2.000000  2.000000
                       2.000000  2.000000  2.000000  2.000000  2.000000  2.000000
                       2.000000  2.000000  2.000000  2.000000  2.000000  2.000000
                       2.000000  2.000000  0.000000  0.000000  0.000000  0.000000
                       2.000000  2.000000  2.000000  2.000000  2.000000  2.000000
                       2.000000  2.000000  2.000000  2.000000  2.000000  2.000000
                       2.000000  2.000000  2.000000  2.000000  2.000000  2.000000
                       2.000000  2.000000  2.000000  2.000000  2.000000  2.000000
                       2.000000  2.000000  2.000000  2.000000  2.000000  2.000000
                       2.000000  2.000000  2.000000  2.000000  2.000000  2.000000
                       2.000000  2.000000  2.000000  2.000000  2.000000  2.000000
                       2.000000  2.000000  2.000000  2.000000  2.000000  2.000000
                       2.000000  2.000000  2.000000  2.000000  2.000000  2.000000
                       2.000000  2.000000  2.000000  2.000000  2.000000  2.000000
                       2.000000  2.000000  2.000000  2.000000  2.000000  2.000000
                       2.000000  2.000000  2.000000  2.000000  2.000000  2.000000
                       2.000000  2.000000  2.000000  2.000000  2.000000  2.000000
                       2.000000  2.000000  2.000000  2.000000  2.000000  2.000000
                       2.000000  2.000000  2.000000  2.000000  2.000000  2.000000
                       2.000000  2.000000  2.000000  2.000000  2.000000  2.000000
                       2.000000  2.000000  2.000000  2.000000  2.000000  2.000000
                       2.000000  2.000000  2.000000  2.000000  2.000000  2.000000
                       2.000000  2.000000  2.000000  2.000000  2.000000  2.000000
                       2.000000  2.000000  0.000000  0.000000  0.000000  0.000000
           occopt           7
        paral_kgb           1
        pawecutdg      3.00000000E+01 Hartree
           prtden           0
           shiftk      5.00000000E-01  5.00000000E-01  5.00000000E-01
          spgroup          47
           symrel      1  0  0   0  1  0   0  0  1      -1  0  0   0 -1  0   0  0 -1
                      -1  0  0   0  1  0   0  0 -1       1  0  0   0 -1  0   0  0  1
                      -1  0  0   0 -1  0   0  0  1       1  0  0   0  1  0   0  0 -1
                       1  0  0   0 -1  0   0  0 -1      -1  0  0   0  1  0   0  0  1
            tnons      0.0000000  0.0000000  0.0000000     0.0000000  0.0000000 -0.4285714
                       0.0000000  0.0000000 -0.4285714     0.0000000  0.0000000  0.0000000
                       0.0000000  0.0000000  0.0000000     0.0000000  0.0000000 -0.4285714
                       0.0000000  0.0000000 -0.4285714     0.0000000  0.0000000  0.0000000
           tolwfr      1.00000000E-22
            typat      3  3  2  3  3  2  1  3  3  3  2  1  3  3  3  2  1  3  3  3
                       2  1  3  3  3  2  3  3  2
           useylm           1
         wfoptalg          14
              wtk        0.25000    0.25000    0.25000    0.25000
           xangst      0.0000000000E+00  0.0000000000E+00 -2.2560597003E+00
                       2.0000000000E+00  2.0000000000E+00 -1.7358821221E+00
                       0.0000000000E+00  2.0000000000E+00 -1.9382320766E+00
                       2.0000000000E+00  0.0000000000E+00  3.4528873159E-01
                       0.0000000000E+00  2.0000000000E+00 -5.5854849972E-02
                       2.0000000000E+00  2.0000000000E+00  1.7294657522E-01
                       0.0000000000E+00  0.0000000000E+00  2.1069676394E+00
                       2.0000000000E+00  2.0000000000E+00  2.1255940917E+00
                       2.0000000000E+00  0.0000000000E+00  4.1033165071E+00
                       0.0000000000E+00  2.0000000000E+00  4.0568887931E+00
                       2.0000000000E+00  2.0000000000E+00  4.0843127188E+00
                       0.0000000000E+00  0.0000000000E+00  6.0394536284E+00
                       2.0000000000E+00  2.0000000000E+00  6.0414127393E+00
                       2.0000000000E+00  0.0000000000E+00  8.0000000000E+00
                       0.0000000000E+00  2.0000000000E+00  8.0000000000E+00
                       2.0000000000E+00  2.0000000000E+00  8.0000000000E+00
                       0.0000000000E+00  0.0000000000E+00  9.9605463720E+00
                       2.0000000000E+00  2.0000000000E+00  9.9585872606E+00
                       2.0000000000E+00  0.0000000000E+00  1.1896683493E+01
                       0.0000000000E+00  2.0000000000E+00  1.1943111207E+01
                       2.0000000000E+00  2.0000000000E+00  1.1915687281E+01
                       0.0000000000E+00  0.0000000000E+00  1.3893032361E+01
                       2.0000000000E+00  2.0000000000E+00  1.3874405908E+01
                       2.0000000000E+00  0.0000000000E+00  1.5654711268E+01
                       0.0000000000E+00  2.0000000000E+00  1.6055854850E+01
                       2.0000000000E+00  2.0000000000E+00  1.5827053425E+01
                       0.0000000000E+00  0.0000000000E+00  1.8256059700E+01
                       2.0000000000E+00  2.0000000000E+00  1.7735882122E+01
                       0.0000000000E+00  2.0000000000E+00  1.7938232077E+01
            xcart      0.0000000000E+00  0.0000000000E+00 -4.2633349730E+00
                       3.7794522658E+00  3.7794522658E+00 -3.2803418097E+00
                       0.0000000000E+00  3.7794522658E+00 -3.6627278067E+00
                       3.7794522658E+00  0.0000000000E+00  6.5250113947E-01
                       0.0000000000E+00  3.7794522658E+00 -1.0555036964E-01
                       3.7794522658E+00  3.7794522658E+00  3.2682166278E-01
                       0.0000000000E+00  0.0000000000E+00  3.9815918094E+00
                       3.7794522658E+00  3.7794522658E+00  4.0167907030E+00
                       3.7794522658E+00  0.0000000000E+00  7.7541444349E+00
                       0.0000000000E+00  3.7794522658E+00  7.6664087705E+00
                       3.7794522658E+00  3.7794522658E+00  7.7182324796E+00
                       0.0000000000E+00  0.0000000000E+00  1.1412913350E+01
                       3.7794522658E+00  3.7794522658E+00  1.1416615533E+01
                       3.7794522658E+00  0.0000000000E+00  1.5117809063E+01
                       0.0000000000E+00  3.7794522658E+00  1.5117809063E+01
                       3.7794522658E+00  3.7794522658E+00  1.5117809063E+01
                       0.0000000000E+00  0.0000000000E+00  1.8822704777E+01
                       3.7794522658E+00  3.7794522658E+00  1.8819002593E+01
                       3.7794522658E+00  0.0000000000E+00  2.2481473692E+01
                       0.0000000000E+00  3.7794522658E+00  2.2569209355E+01
                       3.7794522658E+00  3.7794522658E+00  2.2517385647E+01
                       0.0000000000E+00  0.0000000000E+00  2.6254026317E+01
                       3.7794522658E+00  3.7794522658E+00  2.6218827423E+01
                       3.7794522658E+00  0.0000000000E+00  2.9583116986E+01
                       0.0000000000E+00  3.7794522658E+00  3.0341168496E+01
                       3.7794522658E+00  3.7794522658E+00  2.9908796464E+01
                       0.0000000000E+00  0.0000000000E+00  3.4498953099E+01
                       3.7794522658E+00  3.7794522658E+00  3.3515959935E+01
                       0.0000000000E+00  3.7794522658E+00  3.3898345933E+01
             xred      0.0000000000E+00  0.0000000000E+00 -8.0573560725E-02
                       5.0000000000E-01  5.0000000000E-01 -6.1995790074E-02
                       0.0000000000E+00  5.0000000000E-01 -6.9222574163E-02
                       5.0000000000E-01  0.0000000000E+00  1.2331740414E-02
                       0.0000000000E+00  5.0000000000E-01 -1.9948160704E-03
                       5.0000000000E-01  5.0000000000E-01  6.1766634006E-03
                       0.0000000000E+00  0.0000000000E+00  7.5248844266E-02
                       5.0000000000E-01  5.0000000000E-01  7.5914074704E-02
                       5.0000000000E-01  0.0000000000E+00  1.4654701811E-01
                       0.0000000000E+00  5.0000000000E-01  1.4488888547E-01
                       5.0000000000E-01  5.0000000000E-01  1.4586831139E-01
                       0.0000000000E+00  0.0000000000E+00  2.1569477244E-01
                       5.0000000000E-01  5.0000000000E-01  2.1576474069E-01
                       5.0000000000E-01  0.0000000000E+00  2.8571428571E-01
                       0.0000000000E+00  5.0000000000E-01  2.8571428571E-01
                       5.0000000000E-01  5.0000000000E-01  2.8571428571E-01
                       0.0000000000E+00  0.0000000000E+00  3.5573379900E-01
                       5.0000000000E-01  5.0000000000E-01  3.5566383074E-01
                       5.0000000000E-01  0.0000000000E+00  4.2488155333E-01
                       0.0000000000E+00  5.0000000000E-01  4.2653968595E-01
                       5.0000000000E-01  5.0000000000E-01  4.2556026005E-01
                       0.0000000000E+00  0.0000000000E+00  4.9617972717E-01
                       5.0000000000E-01  5.0000000000E-01  4.9551449672E-01
                       5.0000000000E-01  0.0000000000E+00  5.5909683100E-01
                       0.0000000000E+00  5.0000000000E-01  5.7342338750E-01
                       5.0000000000E-01  5.0000000000E-01  5.6525190804E-01
                       0.0000000000E+00  0.0000000000E+00  6.5200213215E-01
                       5.0000000000E-01  5.0000000000E-01  6.3342436149E-01
                       0.0000000000E+00  5.0000000000E-01  6.4065114559E-01
            znucl       56.00000   22.00000    8.00000

================================================================================

 chkinp: Checking input parameters for consistency.

================================================================================
== DATASET  1 ==================================================================
-   nproc =   24

 Exchange-correlation functional for the present dataset will be:
  LDA: Perdew-Wang 92 LSD fit to Ceperley-Alder data - ixc=7
 Citation for XC functional:
  J.P.Perdew and Y.Wang, PRB 45, 13244 (1992)

 Real(R)+Recip(G) space primitive vectors, cartesian coordinates (Bohr,Bohr^-1):
 R(1)=  7.5589045  0.0000000  0.0000000  G(1)=  0.1322943  0.0000000  0.0000000
 R(2)=  0.0000000  7.5589045  0.0000000  G(2)=  0.0000000  0.1322943  0.0000000
 R(3)=  0.0000000  0.0000000 52.9123317  G(3)=  0.0000000  0.0000000  0.0188992
 Unit cell volume ucvol=  3.0232539E+03 bohr^3
 Angles (23,13,12)=  9.00000000E+01  9.00000000E+01  9.00000000E+01 degrees

 Coarse grid specifications (used for wave-functions):

 getcut: wavevector=  0.0000  0.0000  0.0000  ngfft=  30  30 192
         ecut(hartree)=     15.000   => boxcut(ratio)=   2.08129

 Fine grid specifications (used for densities):

 getcut: wavevector=  0.0000  0.0000  0.0000  ngfft=  40  40 270
         ecut(hartree)=     30.000   => boxcut(ratio)=   2.06957

--- Pseudopotential description ------------------------------------------------
- pspini: atom type   1  psp file is ba_ps.abinit.paw
- pspatm: opening atomic psp file    ba_ps.abinit.paw
- Paw atomic data for element Ba - Generated by AtomPAW + AtomPAW2Abinit v3.2.0
- 56.00000  10.00000  20091115                znucl, zion, pspdat
    7    7    1    0       881   0.00000      pspcod,pspxc,lmax,lloc,mmax,r2well
 Pseudopotential format is: paw4
 basis_size (lnmax)=  4 (lmn_size=  8), orbitals=   0   0   1   1
 Spheres core radius: rc_sph= 2.40629003
 4 radial meshes are used:
  - mesh 1: r(i)=AA*[exp(BB*(i-1))-1], size= 881 , AA= 0.19252E-03 BB= 0.10781E-01
  - mesh 2: r(i)=AA*[exp(BB*(i-1))-1], size= 889 , AA= 0.19252E-03 BB= 0.10781E-01
  - mesh 3: r(i)=AA*[exp(BB*(i-1))-1], size= 934 , AA= 0.19252E-03 BB= 0.10781E-01
  - mesh 4: r(i)=AA*[exp(BB*(i-1))-1], size=1008 , AA= 0.19252E-03 BB= 0.10781E-01
 Shapefunction is SIN type: shapef(r)=[sin(pi*r/rshp)/(pi*r/rshp)]**2
 Radius for shape functions = sphere core radius
 Radial grid used for partial waves is grid 1
 Radial grid used for projectors is grid 2
 Radial grid used for (t)core density is grid 3
 Radial grid used for Vloc is grid 4
 Radial grid used for pseudo valence density is grid 4
 Compensation charge density is taken into account in XC energy/potential
 pspatm: atomic psp has been read  and splines computed

- pspini: atom type   2  psp file is Ti-LDA-uspp.paw
- pspatm: opening atomic psp file    Ti-LDA-uspp.paw
- titanium - PAW data extracted from US-psp (D.Vanderbilt) - generated by USpp2Abinit v2.3.0
- 22.00000  12.00000  20090106                znucl, zion, pspdat
    7    2    2    0       587   0.00000      pspcod,pspxc,lmax,lloc,mmax,r2well
 Pseudopotential format is: paw4
 basis_size (lnmax)=  6 (lmn_size= 18), orbitals=   0   0   1   1   2   2
 Spheres core radius: rc_sph= 2.13051192
 4 radial meshes are used:
  - mesh 1: r(i)=AA*[exp(BB*(i-1))-1], size= 587 , AA= 0.11267E-03 BB= 0.16949E-01
  - mesh 2: r(i)=AA*[exp(BB*(i-1))-1], size= 583 , AA= 0.11267E-03 BB= 0.16949E-01
  - mesh 3: r(i)=AA*[exp(BB*(i-1))-1], size= 673 , AA= 0.11267E-03 BB= 0.16949E-01
  - mesh 4: r(i)=AA*[exp(BB*(i-1))-1], size= 678 , AA= 0.11267E-03 BB= 0.16949E-01
 Shapefunction is BESSEL type: shapef(r,l)=aa(1,l)*jl(q(1,l)*r)+aa(2,l)*jl(q(2,l)*r)
 Radius for shape functions = sphere core radius
 Radial grid used for partial waves is grid 1
 Radial grid used for projectors is grid 2
 Radial grid used for (t)core density is grid 1
 Radial grid used for Vloc is grid 3
 Radial grid used for pseudo valence density is grid 4
 Compensation charge density is taken into account in XC energy/potential
 pspatm: atomic psp has been read  and splines computed

- pspini: atom type   3  psp file is 8o.paw
- pspatm: opening atomic psp file    8o.paw
- Paw atomic data for element O - Generated by AtomPAW (N. Holzwarth)
-  8.00000   6.00000  20040423                znucl, zion, pspdat
    7    7    1    0       350   0.00000      pspcod,pspxc,lmax,lloc,mmax,r2well
 Pseudopotential format is: paw2
 basis_size (lnmax)=  4 (lmn_size=  8), orbitals=   0   0   1   1
 Spheres core radius: rc_sph= 1.41000000
 2 radial meshes are used:
  - mesh 1: r(i)=AA*exp(BB*(i-2)), size= 350 , AA= 0.72362E-05 BB= 0.35000E-01
  - mesh 2: r(i)=step*(i-1), size= 566 , step= 0.25000E-02
 Shapefunction is SIN type: shapef(r)=[sin(pi*r/rshp)/(pi*r/rshp)]**2
 Radius for shape functions = sphere core radius
 Radial grid used for partial waves is grid 1
 Radial grid used for projectors is grid 2
 Radial grid used for (t)core density is grid 1
 Radial grid used for Vloc is grid 1
 Compensation charge density is taken into account in XC energy/potential
 pspatm: atomic psp has been read  and splines computed

   1.34818859E+05                                ecore*ucvol(ha*bohr**3)
--------------------------------------------------------------------------------

P newkpt: treating    120 bands with npw=    1404 for ikpt=   1 by node    0
P newkpt: treating    120 bands with npw=    1398 for ikpt=   2 by node    1
P newkpt: treating    120 bands with npw=    1398 for ikpt=   3 by node    2
P newkpt: treating    120 bands with npw=    1392 for ikpt=   4 by node    3

 setup2: Arith. and geom. avg. npw (full set) are    1398.000    1397.994

================================================================================

     iter   Etot(hartree)      deltaE(h)  residm     vres2
 ETOT  1  -801.57056564554    -8.016E+02 9.919E-03 5.582E+04
 ETOT  2  -799.61997709269     1.951E+00 8.582E-04 9.747E+05
 ETOT  3  -804.84485407075    -5.225E+00 3.126E-03 5.046E+03
 ETOT  4  -805.82550222807    -9.806E-01 3.390E-03 2.297E+03
 ETOT  5  -805.35183801973     4.737E-01 1.125E-02 5.319E+04
 ETOT  6  -805.91403427697    -5.622E-01 9.296E-04 1.406E+04
 ETOT  7  -805.97167389166    -5.764E-02 7.198E-04 1.308E+03
 ETOT  8  -805.98435154378    -1.268E-02 2.110E-04 6.407E+03
 ETOT  9  -805.98737644460    -3.025E-03 1.445E-03 3.053E+03
 ETOT 10  -806.02343948446    -3.606E-02 3.563E-04 1.482E+03
 ETOT 11  -806.01124826679     1.219E-02 4.872E-05 2.622E+03
 ETOT 12  -806.02833676841    -1.709E-02 6.392E-04 1.026E+03
 ETOT 13  -806.03325914324    -4.922E-03 5.810E-04 4.754E+02
 ETOT 14  -806.03369986588    -4.407E-04 1.848E-05 7.092E+02
 ETOT 15  -806.03528312050    -1.583E-03 2.812E-05 3.519E+02
 ETOT 16  -806.03659270862    -1.310E-03 8.868E-05 2.756E+02
 ETOT 17  -806.03683739922    -2.447E-04 5.682E-06 2.948E+02
 ETOT 18  -806.03727447123    -4.371E-04 4.455E-06 1.811E+02
 ETOT 19  -806.03763579402    -3.613E-04 7.295E-06 1.631E+02
 ETOT 20  -806.03776831300    -1.325E-04 4.385E-06 1.525E+02
 ETOT 21  -806.03791594403    -1.476E-04 4.150E-06 1.039E+02
 ETOT 22  -806.03799851866    -8.257E-05 8.719E-06 1.040E+02
 ETOT 23  -806.03808013933    -8.162E-05 4.030E-06 9.440E+01
 ETOT 24  -806.03815128123    -7.114E-05 2.846E-06 7.148E+01
 ETOT 25  -806.03818329343    -3.201E-05 3.854E-06 7.043E+01
 ETOT 26  -806.03822151795    -3.822E-05 2.739E-06 6.333E+01
 ETOT 27  -806.03825949968    -3.798E-05 2.700E-06 5.330E+01
 ETOT 28  -806.03826843746    -8.938E-06 2.132E-06 5.165E+01
 ETOT 29  -806.03829733669    -2.890E-05 2.400E-06 4.482E+01
 ETOT 30  -806.03831662345    -1.929E-05 2.033E-06 4.021E+01
 ETOT 31  -806.03832586440    -9.241E-06 1.525E-06 3.789E+01
 ETOT 32  -806.03834560590    -1.974E-05 1.454E-06 3.238E+01
 ETOT 33  -806.03835294329    -7.337E-06 1.329E-06 3.076E+01
 ETOT 34  -806.03836610429    -1.316E-05 1.265E-06 2.743E+01
 ETOT 35  -806.03837395824    -7.854E-06 1.082E-06 2.504E+01
 ETOT 36  -806.03838505975    -1.110E-05 1.058E-06 2.209E+01
 ETOT 37  -806.03838859191    -3.532E-06 9.052E-07 2.140E+01
 ETOT 38  -806.03839836406    -9.772E-06 8.856E-07 1.882E+01
 ETOT 39  -806.03840328088    -4.917E-06 6.591E-07 1.728E+01
 ETOT 40  -806.03841011732    -6.836E-06 7.281E-07 1.571E+01
 ETOT 41  -806.03841293423    -2.817E-06 4.854E-07 1.501E+01
 ETOT 42  -806.03842013337    -7.199E-06 5.718E-07 1.293E+01
 ETOT 43  -806.03842171091    -1.578E-06 4.030E-07 1.251E+01
 ETOT 44  -806.03842701445    -5.304E-06 4.799E-07 1.129E+01
 ETOT 45  -806.03842987786    -2.863E-06 3.123E-07 1.046E+01
 ETOT 46  -806.03843418809    -4.310E-06 3.876E-07 9.173E+00
 ETOT 47  -806.03843549021    -1.302E-06 2.589E-07 9.003E+00
 ETOT 48  -806.03843923752    -3.747E-06 3.331E-07 8.047E+00
 ETOT 49  -806.03844172324    -2.486E-06 2.136E-07 7.216E+00
 ETOT 50  -806.03844431685    -2.594E-06 3.306E-07 6.636E+00
 ETOT 51  -806.03844554536    -1.229E-06 1.972E-07 6.392E+00
 ETOT 52  -806.03844868581    -3.140E-06 3.022E-07 5.497E+00
 ETOT 53  -806.03844923378    -5.480E-07 1.852E-07 5.285E+00
 ETOT 54  -806.03845168863    -2.455E-06 2.892E-07 4.786E+00
 ETOT 55  -806.03845285096    -1.162E-06 1.759E-07 4.474E+00
 ETOT 56  -806.03845493787    -2.087E-06 2.842E-07 3.808E+00
 ETOT 57  -806.03845528526    -3.474E-07 1.658E-07 3.835E+00
 ETOT 58  -806.03845696881    -1.684E-06 2.768E-07 3.440E+00
 ETOT 59  -806.03845840359    -1.435E-06 1.516E-07 2.976E+00
 ETOT 60  -806.03845932807    -9.245E-07 2.740E-07 2.773E+00
 ETOT 61  -806.03845997069    -6.426E-07 1.440E-07 2.686E+00
 ETOT 62  -806.03846140314    -1.432E-06 2.491E-07 2.301E+00
 ETOT 63  -806.03846166338    -2.602E-07 1.361E-07 2.166E+00
 ETOT 64  -806.03846284453    -1.181E-06 2.449E-07 1.974E+00
 ETOT 65  -806.03846333809    -4.936E-07 1.278E-07 1.866E+00
 ETOT 66  -806.03846440635    -1.068E-06 2.391E-07 1.513E+00
 ETOT 67  -806.03846438709     1.926E-08 1.225E-07 1.600E+00
 ETOT 68  -806.03846528927    -9.022E-07 2.329E-07 1.407E+00
 ETOT 69  -806.03846610857    -8.193E-07 1.142E-07 1.155E+00
 ETOT 70  -806.03846639851    -2.899E-07 2.315E-07 1.107E+00
 ETOT 71  -806.03846677993    -3.814E-07 1.143E-07 1.075E+00
 ETOT 72  -806.03846749939    -7.195E-07 2.031E-07 8.945E-01
 ETOT 73  -806.03846760914    -1.097E-07 1.029E-07 8.493E-01
 ETOT 74  -806.03846814322    -5.341E-07 1.989E-07 7.745E-01
 ETOT 75  -806.03846840386    -2.606E-07 9.421E-08 7.310E-01
 ETOT 76  -806.03846878949    -3.856E-07 1.933E-07 6.216E-01
 ETOT 77  -806.03846891224    -1.228E-07 9.245E-08 6.347E-01
 ETOT 78  -806.03846929130    -3.791E-07 1.908E-07 5.631E-01
 ETOT 79  -806.03846961349    -3.222E-07 8.913E-08 4.787E-01
 ETOT 80  -806.03846984819    -2.347E-07 1.904E-07 4.471E-01
 ETOT 81  -806.03847003965    -1.915E-07 8.643E-08 4.293E-01
 ETOT 82  -806.03847033456    -2.949E-07 1.698E-07 3.682E-01
 ETOT 83  -806.03847042557    -9.101E-08 8.395E-08 3.503E-01
 ETOT 84  -806.03847069483    -2.693E-07 1.746E-07 3.184E-01
 ETOT 85  -806.03847086083    -1.660E-07 8.052E-08 2.954E-01
 ETOT 86  -806.03847108169    -2.209E-07 1.649E-07 2.449E-01
 ETOT 87  -806.03847116404    -8.235E-08 7.761E-08 2.536E-01
 ETOT 88  -806.03847136238    -1.983E-07 1.552E-07 2.246E-01
 ETOT 89  -806.03847154169    -1.793E-07 7.240E-08 1.886E-01
 ETOT 90  -806.03847166001    -1.183E-07 1.541E-07 1.788E-01
 ETOT 91  -806.03847178603    -1.260E-07 7.025E-08 1.710E-01
 ETOT 92  -806.03847194821    -1.622E-07 1.448E-07 1.453E-01
 ETOT 93  -806.03847202874    -8.053E-08 6.697E-08 1.379E-01
 ETOT 94  -806.03847217121    -1.425E-07 1.387E-07 1.245E-01
 ETOT 95  -806.03847226847    -9.726E-08 6.113E-08 1.171E-01
 ETOT 96  -806.03847237167    -1.032E-07 1.329E-07 1.043E-01
 ETOT 97  -806.03847245684    -8.517E-08 6.132E-08 1.025E-01
 ETOT 98  -806.03847256781    -1.110E-07 1.269E-07 9.088E-02
 ETOT 99  -806.03847266026    -9.245E-08 5.784E-08 8.111E-02
 ETOT100  -806.03847275731    -9.705E-08 1.239E-07 7.348E-02

 Cartesian components of stress tensor (hartree/bohr^3)
  sigma(1 1)=  1.43436369E-03  sigma(3 2)=  0.00000000E+00
  sigma(2 2)=  1.78053867E-03  sigma(3 1)=  0.00000000E+00
  sigma(3 3)=  1.29752532E-03  sigma(2 1)=  0.00000000E+00


 scprqt:  WARNING -
  nstep=  100 was not enough SCF cycles to converge;
  maximum residual=  1.239E-07 exceeds tolwfr=  1.000E-22


 PAW TEST:
 ==== Compensation charge inside spheres ============
 The following values must be close to each other ...
 Compensation charge over spherical meshes =     25.122300006009915
 Compensation charge over fine fft grid    =     25.122136568695424

 ==== Results concerning PAW augmentation regions ====

 Total pseudopotential strength Dij (hartree):
 Atom #  1
   0.06034   0.08682   0.00000  -0.00000   0.00000   0.00000  -0.00026   0.00000
   0.08682   0.02589   0.00000   0.00004   0.00000   0.00000  -0.00003   0.00000
   0.00000   0.00000  -0.71953   0.00000   0.00000   0.05855   0.00000   0.00000
  -0.00000   0.00004   0.00000  -0.71857   0.00000   0.00000   0.05921   0.00000
   0.00000   0.00000   0.00000   0.00000  -0.71849   0.00000   0.00000   0.05926
   0.00000   0.00000   0.05855   0.00000   0.00000  -1.22644   0.00000   0.00000
  -0.00026  -0.00003   0.00000   0.05921   0.00000   0.00000  -1.22550   0.00000
   0.00000   0.00000   0.00000   0.00000   0.05926   0.00000   0.00000  -1.22542
 Atom # 29
  -1.05876   0.21499   0.00000   0.00047   0.00000   0.00000  -0.00028   0.00000   0.00000   0.00000  -0.00292   0.00000 ...
   0.21499   0.07358   0.00000  -0.00011   0.00000   0.00000   0.00038   0.00000   0.00000   0.00000   0.00065   0.00000 ...
   0.00000   0.00000  -1.03224   0.00000   0.00000   0.22643   0.00000   0.00000   0.00000  -0.00042   0.00000   0.00000 ...
   0.00047  -0.00011   0.00000  -1.03785   0.00000   0.00000   0.22987   0.00000   0.00000   0.00000   0.00111   0.00000 ...
   0.00000   0.00000   0.00000   0.00000  -1.03514   0.00000   0.00000   0.22830   0.00000   0.00000   0.00000   0.00016 ...
   0.00000   0.00000   0.22643   0.00000   0.00000   0.52925   0.00000   0.00000   0.00000  -0.00005   0.00000   0.00000 ...
  -0.00028   0.00038   0.00000   0.22987   0.00000   0.00000   0.52860   0.00000   0.00000   0.00000  -0.00047   0.00000 ...
   0.00000   0.00000   0.00000   0.00000   0.22830   0.00000   0.00000   0.52887   0.00000   0.00000   0.00000  -0.00021 ...
   0.00000   0.00000   0.00000   0.00000   0.00000   0.00000   0.00000   0.00000  -0.22046   0.00000   0.00000   0.00000 ...
   0.00000   0.00000  -0.00042   0.00000   0.00000  -0.00005   0.00000   0.00000   0.00000  -0.22227   0.00000   0.00000 ...
  -0.00292   0.00065   0.00000   0.00111   0.00000   0.00000  -0.00047   0.00000   0.00000   0.00000  -0.22422   0.00000 ...
   0.00000   0.00000   0.00000   0.00000   0.00016   0.00000   0.00000  -0.00021   0.00000   0.00000   0.00000  -0.22443 ...
   ...  only 12  components have been written...


 Augmentation waves occupancies Rhoij:
 Atom #  1
   1.89210   0.00779   0.00000   0.00015   0.00000   0.00000   0.00071   0.00000
   0.00779   0.00008   0.00000   0.00068   0.00000   0.00000   0.00006   0.00000
   0.00000   0.00000   1.34061   0.00000   0.00000   0.08946   0.00000   0.00000
   0.00015   0.00068   0.00000   1.35770   0.00000   0.00000   0.08306   0.00000
   0.00000   0.00000   0.00000   0.00000   1.36180   0.00000   0.00000   0.08164
   0.00000   0.00000   0.08946   0.00000   0.00000   0.00604   0.00000   0.00000
   0.00071   0.00006   0.00000   0.08306   0.00000   0.00000   0.00510   0.00000
   0.00000   0.00000   0.00000   0.00000   0.08164   0.00000   0.00000   0.00492
 Atom # 29
   2.00375   0.01287   0.00000   0.00003   0.00000   0.00000   0.00438   0.00000   0.00000   0.00000   0.00757   0.00000 ...
   0.01287   0.57129   0.00000   0.03636   0.00000   0.00000  -0.04751   0.00000   0.00000   0.00000  -0.01849   0.00000 ...
   0.00000   0.00000   2.00674   0.00000   0.00000  -0.00257   0.00000   0.00000   0.00000  -0.00951   0.00000   0.00000 ...
   0.00003   0.03636   0.00000   2.00338   0.00000   0.00000   0.01096   0.00000   0.00000   0.00000   0.04994   0.00000 ...
   0.00000   0.00000   0.00000   0.00000   2.00712   0.00000   0.00000   0.00025   0.00000   0.00000   0.00000   0.01281 ...
   0.00000   0.00000  -0.00257   0.00000   0.00000   0.04249   0.00000   0.00000   0.00000   0.01936   0.00000   0.00000 ...
   0.00438  -0.04751   0.00000   0.01096   0.00000   0.00000   0.03024   0.00000   0.00000   0.00000  -0.07580   0.00000 ...
   0.00000   0.00000   0.00000   0.00000   0.00025   0.00000   0.00000   0.04158   0.00000   0.00000   0.00000  -0.01668 ...
   0.00000   0.00000   0.00000   0.00000   0.00000   0.00000   0.00000   0.00000   0.37198   0.00000   0.00000   0.00000 ...
   0.00000   0.00000  -0.00951   0.00000   0.00000   0.01936   0.00000   0.00000   0.00000   0.38150   0.00000   0.00000 ...
   0.00757  -0.01849   0.00000   0.04994   0.00000   0.00000  -0.07580   0.00000   0.00000   0.00000   0.58874   0.00000 ...
   0.00000   0.00000   0.00000   0.00000   0.01281   0.00000   0.00000  -0.01668   0.00000   0.00000   0.00000   0.30631 ...
   ...  only 12  components have been written...


================================================================================

 ----iterations are completed or convergence reached----

 Mean square residual over all n,k,spin=   2.6949E-10; max=  1.2392E-07
   0.1250  0.1250  0.5000    1  1.23918E-07 kpt; spin; max resid(k); each band:
  8.83E-16 8.82E-16 8.09E-17 8.05E-17 3.87E-16 2.82E-16 3.75E-16 4.62E-12
  6.24E-12 2.88E-11 2.70E-11 2.73E-12 1.13E-12 9.97E-13 2.01E-12 9.80E-13
  9.82E-13 7.10E-14 9.62E-14 2.00E-14 1.21E-15 8.05E-16 1.04E-14 1.62E-15
  3.52E-15 8.22E-16 2.96E-13 2.96E-13 9.50E-16 2.97E-15 1.02E-15 8.55E-15
  1.81E-12 1.27E-12 4.16E-13 1.05E-12 4.39E-14 8.92E-13 1.98E-12 9.12E-13
  3.10E-13 5.34E-14 8.31E-15 1.20E-14 1.70E-15 1.59E-13 2.33E-13 2.13E-13
  3.19E-13 3.19E-13 2.70E-14 2.33E-14 3.50E-15 7.32E-15 1.97E-14 1.94E-14
  1.03E-14 3.62E-14 1.62E-14 4.27E-14 1.00E-14 8.53E-15 3.16E-12 2.52E-12
  4.15E-13 3.11E-13 1.54E-12 1.46E-12 3.61E-13 1.36E-13 1.72E-13 7.08E-14
  8.14E-14 3.05E-13 4.95E-14 4.56E-14 2.10E-13 4.99E-14 9.16E-14 1.22E-14
  6.32E-13 9.31E-13 1.66E-12 9.29E-14 1.07E-12 7.55E-13 2.87E-13 6.38E-13
  9.70E-13 1.62E-13 2.08E-13 1.74E-13 1.10E-13 2.77E-13 2.26E-13 4.35E-13
  5.42E-13 1.37E-13 3.45E-14 6.02E-14 1.74E-13 3.83E-14 2.56E-13 4.89E-13
  3.77E-13 5.12E-13 6.90E-13 3.28E-13 1.74E-13 1.60E-13 3.83E-13 3.28E-13
  4.54E-13 4.40E-13 8.05E-13 7.75E-13 3.10E-12 3.69E-12 4.98E-09 1.24E-07
   0.3750  0.1250  0.5000    1  2.10919E-11 kpt; spin; max resid(k); each band:
  7.90E-16 7.89E-16 7.32E-17 7.27E-17 3.59E-16 2.64E-16 3.58E-16 4.16E-13
  1.46E-11 2.11E-11 1.96E-11 1.10E-13 1.25E-12 1.04E-12 1.50E-12 2.49E-13
  2.50E-13 5.76E-13 2.05E-15 2.90E-15 3.86E-13 1.85E-15 5.87E-14 7.84E-15
  5.82E-16 3.25E-15 5.74E-14 5.81E-14 3.09E-15 3.91E-15 1.28E-15 4.20E-16
  2.21E-12 2.70E-12 2.42E-13 4.91E-13 1.20E-12 3.11E-12 2.45E-12 3.45E-12
  3.56E-12 8.62E-15 2.31E-14 6.82E-14 2.21E-14 4.41E-15 5.33E-14 5.45E-14
  3.51E-13 3.42E-13 3.85E-14 3.49E-14 2.29E-14 7.84E-15 4.57E-15 3.77E-15
  5.64E-15 1.79E-14 1.25E-14 1.18E-14 1.46E-14 1.16E-14 8.23E-13 8.66E-13
  5.68E-13 6.38E-13 1.39E-13 1.10E-13 4.15E-13 5.71E-13 1.51E-13 1.51E-13
  3.50E-13 6.88E-13 5.39E-13 1.57E-13 8.85E-14 1.35E-13 1.22E-13 4.16E-14
  1.63E-13 5.51E-14 2.91E-14 2.09E-13 3.21E-14 7.02E-14 1.19E-13 1.24E-13
  1.99E-13 2.04E-13 5.82E-14 2.13E-14 2.57E-14 1.84E-13 1.49E-12 2.44E-13
  5.86E-13 1.03E-13 8.81E-14 1.03E-13 3.35E-14 1.72E-13 2.72E-13 4.07E-14
  8.08E-13 2.97E-13 3.79E-12 5.68E-12 9.31E-14 2.41E-12 2.58E-12 7.36E-13
  6.91E-13 3.74E-14 7.44E-13 7.92E-13 3.59E-13 2.14E-12 2.40E-12 1.93E-12
   0.1250  0.3750  0.5000    1  3.14417E-11 kpt; spin; max resid(k); each band:
  7.44E-16 7.43E-16 6.97E-17 6.93E-17 3.61E-16 2.65E-16 3.60E-16 5.54E-12
  5.87E-12 3.14E-11 2.51E-11 2.84E-12 1.12E-12 9.96E-13 1.98E-12 1.33E-12
  1.33E-12 6.34E-14 9.03E-14 4.26E-15 3.20E-15 1.49E-15 1.98E-14 9.45E-16
  7.57E-16 6.98E-16 3.44E-13 3.42E-13 6.31E-16 7.65E-16 8.26E-16 1.55E-15
  2.16E-12 8.03E-13 2.00E-13 8.28E-13 9.82E-13 2.63E-12 2.40E-13 2.03E-13
  6.88E-13 1.24E-14 3.88E-14 9.46E-15 7.69E-15 8.88E-15 2.76E-13 2.76E-13
  4.17E-13 4.18E-13 1.65E-14 4.03E-14 1.01E-14 1.52E-14 2.84E-14 2.90E-14
  6.77E-15 1.82E-14 2.67E-14 4.77E-14 8.05E-15 2.11E-14 1.92E-12 2.22E-12
  1.67E-12 7.49E-13 1.05E-12 8.33E-13 2.57E-13 6.57E-14 6.25E-13 1.07E-12
  3.21E-13 2.75E-13 3.57E-13 7.84E-14 3.90E-13 1.54E-13 2.16E-13 2.34E-13
  2.61E-13 1.41E-13 4.66E-14 6.65E-14 1.80E-13 7.27E-14 1.50E-13 1.03E-13
  3.95E-13 1.51E-13 1.44E-12 1.78E-12 2.42E-13 3.33E-13 6.30E-13 1.41E-13
  1.59E-13 1.89E-13 2.03E-13 2.49E-13 1.95E-13 1.81E-13 7.66E-14 8.78E-14
  8.41E-14 1.59E-13 3.95E-14 8.54E-14 1.37E-13 4.12E-13 3.00E-13 2.80E-13
  4.07E-13 1.86E-13 2.00E-13 1.96E-13 2.19E-12 9.01E-13 1.09E-12 2.26E-13
   0.3750  0.3750  0.5000    1  2.09872E-11 kpt; spin; max resid(k); each band:
  7.23E-16 7.22E-16 7.64E-17 7.60E-17 3.71E-16 2.75E-16 3.59E-16 4.20E-13
  1.50E-11 2.10E-11 2.01E-11 1.08E-13 1.27E-12 2.63E-13 2.61E-13 1.05E-12
  1.50E-12 5.49E-13 2.06E-15 1.73E-15 1.76E-14 2.70E-15 3.55E-13 1.28E-15
  1.60E-15 6.15E-14 7.00E-14 6.94E-14 7.40E-16 5.89E-16 3.57E-16 1.39E-16
  1.87E-12 3.05E-12 6.18E-13 1.47E-12 3.06E-12 4.37E-12 3.23E-12 1.52E-13
  1.41E-12 3.79E-13 6.94E-14 1.06E-13 5.62E-15 1.24E-14 2.90E-14 2.82E-14
  1.12E-13 9.14E-14 3.14E-14 3.24E-14 6.37E-15 2.40E-14 3.86E-14 4.26E-15
  4.32E-15 2.10E-14 1.44E-14 1.09E-14 9.16E-15 1.04E-14 7.02E-13 8.49E-13
  1.30E-13 5.32E-13 6.20E-13 1.43E-13 3.89E-14 6.40E-14 9.98E-14 4.19E-14
  1.84E-13 1.37E-12 1.54E-12 7.81E-14 4.26E-14 2.37E-15 1.43E-13 6.38E-14
  5.20E-14 3.54E-13 2.57E-13 2.66E-13 1.21E-13 2.01E-13 2.01E-13 9.88E-14
  6.48E-14 6.24E-14 1.37E-14 1.43E-14 5.99E-15 5.63E-14 1.61E-14 8.14E-14
  9.66E-14 1.19E-13 1.12E-13 9.55E-14 1.08E-13 1.09E-13 1.14E-12 8.34E-13
  4.56E-13 2.50E-13 2.83E-14 7.37E-14 1.69E-14 1.02E-13 7.43E-13 7.35E-13
  5.71E-13 4.78E-13 5.67E-13 5.92E-13 6.30E-13 6.90E-13 1.49E-12 1.09E-12
 reduced coordinates (array xred) for   29 atoms
       0.000000000000      0.000000000000     -0.080573560721
       0.500000000000      0.500000000000     -0.061995790064
       0.000000000000      0.500000000000     -0.069222574162
       0.500000000000      0.000000000000      0.012331740423
       0.000000000000      0.500000000000     -0.001994816070
       0.500000000000      0.500000000000      0.006176663397
       0.000000000000      0.000000000000      0.075248844266
       0.500000000000      0.500000000000      0.075914074707
       0.500000000000      0.000000000000      0.146547018105
       0.000000000000      0.500000000000      0.144888885476
       0.500000000000      0.500000000000      0.145868311384
       0.000000000000      0.000000000000      0.215694772438
       0.500000000000      0.500000000000      0.215764740693
       0.500000000000      0.000000000000      0.285714285716
       0.000000000000      0.500000000000      0.285714285716
       0.500000000000      0.500000000000      0.285714285716
       0.000000000000      0.000000000000      0.355733798995
       0.500000000000      0.500000000000      0.355663830740
       0.500000000000      0.000000000000      0.424881553328
       0.000000000000      0.500000000000      0.426539685957
       0.500000000000      0.500000000000      0.425560260049
       0.000000000000      0.000000000000      0.496179727167
       0.500000000000      0.500000000000      0.495514496725
       0.500000000000      0.000000000000      0.559096831010
       0.000000000000      0.500000000000      0.573423387503
       0.500000000000      0.500000000000      0.565251908036
       0.000000000000      0.000000000000      0.652002132154
       0.500000000000      0.500000000000      0.633424361497
       0.000000000000      0.500000000000      0.640651145595
 rms dE/dt=  1.1295E-01; max dE/dt=  5.5224E-01; dE/dt below (all hartree)
    1       0.000000000000      0.000000000000     -0.036578457393
    2       0.000000000000      0.000000000000      0.304234373538
    3       0.000000000000      0.000000000000     -0.552244609160
    4       0.000000000000      0.000000000000      0.370899029706
    5       0.000000000000      0.000000000000      0.028391431168
    6       0.000000000000      0.000000000000     -0.005624224145
    7       0.000000000000      0.000000000000     -0.037546499812
    8       0.000000000000      0.000000000000     -0.020210912544
    9       0.000000000000      0.000000000000      0.097155953181
   10       0.000000000000      0.000000000000     -0.053203477457
   11       0.000000000000      0.000000000000     -0.052517077678
   12       0.000000000000      0.000000000000     -0.017115267382
   13       0.000000000000      0.000000000000      0.024012803758
   14       0.000000000000      0.000000000000      0.000000000000
   15       0.000000000000      0.000000000000      0.000000000000
   16       0.000000000000      0.000000000000      0.000000000000
   17       0.000000000000      0.000000000000      0.017115267382
   18       0.000000000000      0.000000000000     -0.024012803758
   19       0.000000000000      0.000000000000     -0.097155953181
   20       0.000000000000      0.000000000000      0.053203477457
   21       0.000000000000      0.000000000000      0.052517077678
   22       0.000000000000      0.000000000000      0.037546499812
   23       0.000000000000      0.000000000000      0.020210912544
   24       0.000000000000      0.000000000000     -0.370899029706
   25       0.000000000000      0.000000000000     -0.028391431168
   26       0.000000000000      0.000000000000      0.005624224145
   27       0.000000000000      0.000000000000      0.036578457393
   28       0.000000000000      0.000000000000     -0.304234373538
   29       0.000000000000      0.000000000000      0.552244609160

 cartesian coordinates (angstrom) at end:
    1      0.00000000000000     0.00000000000000    -2.25605970019043
    2      2.00000000000000     2.00000000000000    -1.73588212178707
    3      0.00000000000000     2.00000000000000    -1.93823207654802
    4      2.00000000000000     0.00000000000000     0.34528873183260
    5      0.00000000000000     2.00000000000000    -0.05585484996115
    6      2.00000000000000     2.00000000000000     0.17294657511612
    7      0.00000000000000     0.00000000000000     2.10696763944310
    8      2.00000000000000     2.00000000000000     2.12559409180964
    9      2.00000000000000     0.00000000000000     4.10331650693177
   10      0.00000000000000     2.00000000000000     4.05688879332121
   11      2.00000000000000     2.00000000000000     4.08431271875048
   12      0.00000000000000     0.00000000000000     6.03945362827379
   13      2.00000000000000     2.00000000000000     6.04141273940401
   14      2.00000000000000     0.00000000000000     8.00000000006078
   15      0.00000000000000     2.00000000000000     8.00000000006078
   16      2.00000000000000     2.00000000000000     8.00000000006078
   17      0.00000000000000     0.00000000000000     9.96054637184776
   18      2.00000000000000     2.00000000000000     9.95858726071755
   19      2.00000000000000     0.00000000000000    11.89668349318979
   20      0.00000000000000     2.00000000000000    11.94311120680034
   21      2.00000000000000     2.00000000000000    11.91568728137107
   22      0.00000000000000     0.00000000000000    13.89303236067846
   23      2.00000000000000     2.00000000000000    13.87440590831192
   24      2.00000000000000     0.00000000000000    15.65471126828896
   25      0.00000000000000     2.00000000000000    16.05585485008271
   26      2.00000000000000     2.00000000000000    15.82705342500544
   27      0.00000000000000     0.00000000000000    18.25605970031198
   28      2.00000000000000     2.00000000000000    17.73588212190862
   29      0.00000000000000     2.00000000000000    17.93823207666958

 cartesian forces (hartree/bohr) at end:
    1     -0.00000000000000    -0.00000000000000     0.00069130307064
    2     -0.00000000000000    -0.00000000000000    -0.00574978201949
    3     -0.00000000000000    -0.00000000000000     0.01043697359765
    4     -0.00000000000000    -0.00000000000000    -0.00700968975745
    5     -0.00000000000000    -0.00000000000000    -0.00053657493905
    6     -0.00000000000000    -0.00000000000000     0.00010629325835
    7     -0.00000000000000    -0.00000000000000     0.00070959828440
    8     -0.00000000000000    -0.00000000000000     0.00038196979582
    9     -0.00000000000000    -0.00000000000000    -0.00183616843222
   10     -0.00000000000000    -0.00000000000000     0.00100550241742
   11     -0.00000000000000    -0.00000000000000     0.00099253002032
   12     -0.00000000000000    -0.00000000000000     0.00032346462205
   13     -0.00000000000000    -0.00000000000000    -0.00045382244512
   14     -0.00000000000000    -0.00000000000000     0.00000000000000
   15     -0.00000000000000    -0.00000000000000     0.00000000000000
   16     -0.00000000000000    -0.00000000000000     0.00000000000000
   17     -0.00000000000000    -0.00000000000000    -0.00032346462205
   18     -0.00000000000000    -0.00000000000000     0.00045382244512
   19     -0.00000000000000    -0.00000000000000     0.00183616843222
   20     -0.00000000000000    -0.00000000000000    -0.00100550241742
   21     -0.00000000000000    -0.00000000000000    -0.00099253002032
   22     -0.00000000000000    -0.00000000000000    -0.00070959828440
   23     -0.00000000000000    -0.00000000000000    -0.00038196979582
   24     -0.00000000000000    -0.00000000000000     0.00700968975745
   25     -0.00000000000000    -0.00000000000000     0.00053657493905
   26     -0.00000000000000    -0.00000000000000    -0.00010629325835
   27     -0.00000000000000    -0.00000000000000    -0.00069130307064
   28     -0.00000000000000    -0.00000000000000     0.00574978201949
   29     -0.00000000000000    -0.00000000000000    -0.01043697359765
 frms,max,avg= 2.1347209E-03 1.0436974E-02   0.000E+00  0.000E+00  0.000E+00 h/b

 cartesian forces (eV/Angstrom) at end:
    1     -0.00000000000000    -0.00000000000000     0.03554823018347
    2     -0.00000000000000    -0.00000000000000    -0.29566565434778
    3     -0.00000000000000    -0.00000000000000     0.53669071587394
    4     -0.00000000000000    -0.00000000000000    -0.36045270966538
    5     -0.00000000000000    -0.00000000000000    -0.02759179042332
    6     -0.00000000000000    -0.00000000000000     0.00546581864761
    7     -0.00000000000000    -0.00000000000000     0.03648900782129
    8     -0.00000000000000    -0.00000000000000     0.01964167497797
    9     -0.00000000000000    -0.00000000000000    -0.09441956915340
   10     -0.00000000000000    -0.00000000000000     0.05170500884872
   11     -0.00000000000000    -0.00000000000000     0.05103794142495
   12     -0.00000000000000    -0.00000000000000     0.01663321823558
   13     -0.00000000000000    -0.00000000000000    -0.02333648645094
   14     -0.00000000000000    -0.00000000000000     0.00000000000000
   15     -0.00000000000000    -0.00000000000000     0.00000000000000
   16     -0.00000000000000    -0.00000000000000     0.00000000000000
   17     -0.00000000000000    -0.00000000000000    -0.01663321823558
   18     -0.00000000000000    -0.00000000000000     0.02333648645094
   19     -0.00000000000000    -0.00000000000000     0.09441956915340
   20     -0.00000000000000    -0.00000000000000    -0.05170500884872
   21     -0.00000000000000    -0.00000000000000    -0.05103794142495
   22     -0.00000000000000    -0.00000000000000    -0.03648900782129
   23     -0.00000000000000    -0.00000000000000    -0.01964167497797
   24     -0.00000000000000    -0.00000000000000     0.36045270966538
   25     -0.00000000000000    -0.00000000000000     0.02759179042332
   26     -0.00000000000000    -0.00000000000000    -0.00546581864761
   27     -0.00000000000000    -0.00000000000000    -0.03554823018347
   28     -0.00000000000000    -0.00000000000000     0.29566565434778
   29     -0.00000000000000    -0.00000000000000    -0.53669071587394
 frms,max,avg= 1.0977175E-01 5.3669072E-01   0.000E+00  0.000E+00  0.000E+00 e/A
 length scales=  7.558904531543  7.558904531543 52.912331720798 bohr
              =  4.000000000000  4.000000000000 28.000000000000 angstroms
 prteigrs : about to open file tdfpt_03.o_EIG
 Fermi (or HOMO) energy (hartree) =   0.07891   Average Vxc (hartree)=  -0.35858
 Eigenvalues (hartree) for nkpt=   4  k points:
 kpt#   1, nband=120, wtk=  0.25000, kpt=  0.1250  0.1250  0.5000 (reduced coord)
  -2.02832  -2.02832  -2.01948  -2.01948  -2.01709  -2.01709  -2.01669  -1.17595
  -1.17595  -1.16886  -1.16886  -1.16110  -1.16110  -1.16022  -1.16020  -1.15852
  -1.15852  -1.15844  -1.15765  -1.15654  -1.15634  -1.15633  -1.15601  -1.15599
  -1.15581  -1.15571  -1.15410  -1.15410  -0.88015  -0.87962  -0.87768  -0.87571
  -0.62220  -0.62220  -0.59695  -0.59599  -0.59445  -0.59084  -0.59048  -0.57368
  -0.57294  -0.56793  -0.56632  -0.56588  -0.56466  -0.56283  -0.55327  -0.55323
  -0.53354  -0.53353  -0.33893  -0.33891  -0.33578  -0.33513  -0.33471  -0.33439
  -0.33131  -0.33055  -0.32718  -0.32569  -0.32252  -0.32192  -0.13120  -0.13084
  -0.12262  -0.11496  -0.11176  -0.10750  -0.09204  -0.08558  -0.08338  -0.08085
  -0.07875  -0.07663  -0.07236  -0.07018  -0.06876  -0.06662  -0.06645  -0.06250
  -0.06098  -0.06076  -0.05817  -0.05471  -0.05200  -0.04861  -0.04783  -0.04635
  -0.04449  -0.03819  -0.03815  -0.02951  -0.02592  -0.02215  -0.01966  -0.01748
  -0.01703  -0.01358  -0.01272  -0.00981  -0.00617  -0.00459  -0.00371  -0.00092
   0.00017   0.00220   0.00409   0.00750   0.00930   0.01359   0.01635   0.01860
   0.01920   0.01944   0.03038   0.03040   0.10696   0.10840   0.11781   0.11891
      occupation numbers for kpt#   1
   2.00000   2.00000   2.00000   2.00000   2.00000   2.00000   2.00000   2.00000
   2.00000   2.00000   2.00000   2.00000   2.00000   2.00000   2.00000   2.00000
   2.00000   2.00000   2.00000   2.00000   2.00000   2.00000   2.00000   2.00000
   2.00000   2.00000   2.00000   2.00000   2.00000   2.00000   2.00000   2.00000
   2.00000   2.00000   2.00000   2.00000   2.00000   2.00000   2.00000   2.00000
   2.00000   2.00000   2.00000   2.00000   2.00000   2.00000   2.00000   2.00000
   2.00000   2.00000   2.00000   2.00000   2.00000   2.00000   2.00000   2.00000
   2.00000   2.00000   2.00000   2.00000   2.00000   2.00000   2.00000   2.00000
   2.00000   2.00000   2.00000   2.00000   2.00000   2.00000   2.00000   2.00000
   2.00000   2.00000   2.00000   2.00000   2.00000   2.00000   2.00000   2.00000
   2.00000   2.00000   2.00000   2.00000   2.00000   1.99999   1.99999   1.99999
   1.99999   1.99997   1.99997   1.99987   1.99979   1.99965   1.99951   1.99935
   1.99931   1.99892   1.99880   1.99829   1.99737   1.99684   1.99651   1.99523
   1.99463   1.99332   1.99183   1.98842   1.98615   1.97908   1.97303   1.96702
   1.96523   1.96448   1.91380   1.91363   0.32129   0.29716   0.16900   0.15729
 kpt#   2, nband=120, wtk=  0.25000, kpt=  0.3750  0.1250  0.5000 (reduced coord)
  -2.02822  -2.02822  -2.01952  -2.01952  -2.01706  -2.01706  -2.01666  -1.17716
  -1.17716  -1.17136  -1.17135  -1.16151  -1.16151  -1.15903  -1.15889  -1.15838
  -1.15838  -1.15810  -1.15782  -1.15781  -1.15742  -1.15718  -1.15645  -1.15594
  -1.15593  -1.15575  -1.15413  -1.15413  -0.87702  -0.87670  -0.87507  -0.87351
  -0.60761  -0.60759  -0.59983  -0.59596  -0.58883  -0.58174  -0.57949  -0.57090
  -0.57076  -0.56658  -0.56546  -0.56346  -0.56306  -0.56097  -0.55308  -0.55298
  -0.53404  -0.53404  -0.34237  -0.34165  -0.33851  -0.33837  -0.33518  -0.33413
  -0.33265  -0.33168  -0.32637  -0.32447  -0.32218  -0.32205  -0.15715  -0.15710
  -0.13081  -0.13078  -0.12668  -0.11820  -0.11315  -0.11294  -0.11126  -0.10691
  -0.10656  -0.10233  -0.09339  -0.09273  -0.08884  -0.08472  -0.07967  -0.07848
  -0.07530  -0.07251  -0.07121  -0.06628  -0.06574  -0.06058  -0.05944  -0.05936
  -0.05827  -0.05799  -0.05626  -0.04314  -0.03948  -0.03589  -0.03092  -0.02990
  -0.02953  -0.01998  -0.01204  -0.01155  -0.00699  -0.00633  -0.00264  -0.00119
   0.00081   0.00106   0.00424   0.00544   0.00958   0.01389   0.01416   0.01803
   0.01846   0.02097   0.03157   0.03166   0.12143   0.12874   0.12884   0.13111
      occupation numbers for kpt#   2
   2.00000   2.00000   2.00000   2.00000   2.00000   2.00000   2.00000   2.00000
   2.00000   2.00000   2.00000   2.00000   2.00000   2.00000   2.00000   2.00000
   2.00000   2.00000   2.00000   2.00000   2.00000   2.00000   2.00000   2.00000
   2.00000   2.00000   2.00000   2.00000   2.00000   2.00000   2.00000   2.00000
   2.00000   2.00000   2.00000   2.00000   2.00000   2.00000   2.00000   2.00000
   2.00000   2.00000   2.00000   2.00000   2.00000   2.00000   2.00000   2.00000
   2.00000   2.00000   2.00000   2.00000   2.00000   2.00000   2.00000   2.00000
   2.00000   2.00000   2.00000   2.00000   2.00000   2.00000   2.00000   2.00000
   2.00000   2.00000   2.00000   2.00000   2.00000   2.00000   2.00000   2.00000
   2.00000   2.00000   2.00000   2.00000   2.00000   2.00000   2.00000   2.00000
   2.00000   2.00000   2.00000   2.00000   2.00000   2.00000   2.00000   2.00000
   2.00000   2.00000   2.00000   1.99998   1.99997   1.99995   1.99990   1.99988
   1.99987   1.99953   1.99870   1.99862   1.99761   1.99742   1.99606   1.99537
   1.99424   1.99409   1.99171   1.99061   1.98576   1.97848   1.97792   1.96863
   1.96741   1.95949   1.90584   1.90514   0.13277   0.07810   0.07748   0.06493
 kpt#   3, nband=120, wtk=  0.25000, kpt=  0.1250  0.3750  0.5000 (reduced coord)
  -2.02830  -2.02829  -2.01945  -2.01945  -2.01706  -2.01706  -2.01666  -1.17590
  -1.17590  -1.16881  -1.16881  -1.16105  -1.16105  -1.16015  -1.16013  -1.15963
  -1.15963  -1.15834  -1.15757  -1.15749  -1.15747  -1.15728  -1.15648  -1.15627
  -1.15627  -1.15564  -1.15539  -1.15539  -0.87716  -0.87687  -0.87514  -0.87355
  -0.62127  -0.62126  -0.59920  -0.59522  -0.59118  -0.58846  -0.58406  -0.57105
  -0.57084  -0.56731  -0.56607  -0.56277  -0.56164  -0.55986  -0.54444  -0.54443
  -0.52288  -0.52288  -0.34278  -0.34205  -0.33854  -0.33784  -0.33535  -0.33381
  -0.33221  -0.33149  -0.32669  -0.32424  -0.32295  -0.32080  -0.13094  -0.12960
  -0.12432  -0.11686  -0.11236  -0.11208  -0.11169  -0.10813  -0.10550  -0.10535
  -0.10334  -0.10039  -0.09874  -0.09545  -0.08975  -0.08689  -0.07944  -0.07694
  -0.07542  -0.07502  -0.07253  -0.07183  -0.07094  -0.06868  -0.06536  -0.06304
  -0.05824  -0.05196  -0.05058  -0.05029  -0.04661  -0.04250  -0.04213  -0.03791
  -0.03399  -0.02871  -0.02210  -0.02099  -0.01581  -0.01547  -0.00804  -0.00612
  -0.00369  -0.00333  -0.00112  -0.00101   0.00492   0.01054   0.01238   0.01820
   0.02025   0.02245   0.03379   0.03383   0.10943   0.11145   0.12414   0.13560
      occupation numbers for kpt#   3
   2.00000   2.00000   2.00000   2.00000   2.00000   2.00000   2.00000   2.00000
   2.00000   2.00000   2.00000   2.00000   2.00000   2.00000   2.00000   2.00000
   2.00000   2.00000   2.00000   2.00000   2.00000   2.00000   2.00000   2.00000
   2.00000   2.00000   2.00000   2.00000   2.00000   2.00000   2.00000   2.00000
   2.00000   2.00000   2.00000   2.00000   2.00000   2.00000   2.00000   2.00000
   2.00000   2.00000   2.00000   2.00000   2.00000   2.00000   2.00000   2.00000
   2.00000   2.00000   2.00000   2.00000   2.00000   2.00000   2.00000   2.00000
   2.00000   2.00000   2.00000   2.00000   2.00000   2.00000   2.00000   2.00000
   2.00000   2.00000   2.00000   2.00000   2.00000   2.00000   2.00000   2.00000
   2.00000   2.00000   2.00000   2.00000   2.00000   2.00000   2.00000   2.00000
   2.00000   2.00000   2.00000   2.00000   2.00000   2.00000   2.00000   2.00000
   2.00000   2.00000   2.00000   2.00000   1.99999   1.99998   1.99998   1.99996
   1.99993   1.99986   1.99964   1.99959   1.99919   1.99915   1.99789   1.99735
   1.99650   1.99636   1.99534   1.99528   1.99110   1.98436   1.98133   1.96816
   1.96192   1.95408   1.88935   1.88903   0.28047   0.24988   0.10977   0.04502
 kpt#   4, nband=120, wtk=  0.25000, kpt=  0.3750  0.3750  0.5000 (reduced coord)
  -2.02820  -2.02820  -2.01950  -2.01950  -2.01704  -2.01703  -2.01664  -1.17710
  -1.17710  -1.17130  -1.17130  -1.16146  -1.16145  -1.15947  -1.15947  -1.15896
  -1.15883  -1.15803  -1.15773  -1.15772  -1.15739  -1.15738  -1.15736  -1.15720
  -1.15709  -1.15639  -1.15542  -1.15542  -0.87483  -0.87459  -0.87301  -0.87160
  -0.60683  -0.60683  -0.59036  -0.58777  -0.58157  -0.57585  -0.57108  -0.56554
  -0.56554  -0.56411  -0.56359  -0.56310  -0.56193  -0.56031  -0.54591  -0.54589
  -0.52256  -0.52256  -0.35850  -0.35822  -0.35312  -0.35273  -0.34943  -0.34643
  -0.34201  -0.33946  -0.33714  -0.33407  -0.32916  -0.32405  -0.15677  -0.15676
  -0.12831  -0.12723  -0.12713  -0.12085  -0.11978  -0.11406  -0.11325  -0.11102
  -0.10892  -0.10577  -0.10462  -0.10182  -0.10176  -0.10146  -0.09835  -0.09492
  -0.09489  -0.08934  -0.08886  -0.08706  -0.08169  -0.07484  -0.07480  -0.07224
  -0.06823  -0.06752  -0.06253  -0.06238  -0.06125  -0.05884  -0.05707  -0.04985
  -0.03862  -0.02749  -0.02157  -0.01685  -0.01296  -0.00267   0.00359   0.00377
   0.00388   0.01158   0.01753   0.01771   0.02125   0.02190   0.02337   0.02350
   0.02643   0.02847   0.04660   0.04674   0.13272   0.13276   0.14602   0.14620
      occupation numbers for kpt#   4
   2.00000   2.00000   2.00000   2.00000   2.00000   2.00000   2.00000   2.00000
   2.00000   2.00000   2.00000   2.00000   2.00000   2.00000   2.00000   2.00000
   2.00000   2.00000   2.00000   2.00000   2.00000   2.00000   2.00000   2.00000
   2.00000   2.00000   2.00000   2.00000   2.00000   2.00000   2.00000   2.00000
   2.00000   2.00000   2.00000   2.00000   2.00000   2.00000   2.00000   2.00000
   2.00000   2.00000   2.00000   2.00000   2.00000   2.00000   2.00000   2.00000
   2.00000   2.00000   2.00000   2.00000   2.00000   2.00000   2.00000   2.00000
   2.00000   2.00000   2.00000   2.00000   2.00000   2.00000   2.00000   2.00000
   2.00000   2.00000   2.00000   2.00000   2.00000   2.00000   2.00000   2.00000
   2.00000   2.00000   2.00000   2.00000   2.00000   2.00000   2.00000   2.00000
   2.00000   2.00000   2.00000   2.00000   2.00000   2.00000   2.00000   2.00000
   2.00000   2.00000   2.00000   2.00000   2.00000   2.00000   2.00000   1.99999
   1.99997   1.99983   1.99962   1.99929   1.99884   1.99608   1.99225   1.99211
   1.99201   1.98270   1.96999   1.96951   1.95852   1.95616   1.95041   1.94987
   1.93645   1.92546   1.74672   1.74464   0.05710   0.05691   0.01766   0.01735
 Total charge density [el/Bohr^3]
,     Maximum=    1.2545E+00  at reduced coord.    0.0000    0.5000    0.6407
,Next maximum=    1.2535E+00  at reduced coord.    0.0000    0.5000    0.9296
,     Minimum=    1.7730E-06  at reduced coord.    0.5000    0.3250    0.7852
,Next minimum=    1.7730E-06  at reduced coord.    0.5000    0.6750    0.7852
,  Integrated=    2.3200E+02

--------------------------------------------------------------------------------
 Components of total free energy (in Hartree) :

    Kinetic energy  =  2.49260142504004E+02
    Hartree energy  =  1.20548539139733E+03
    XC energy       = -1.24887473088018E+02
    Ewald energy    =  4.50522925486291E+02
    PspCore energy  =  4.45939586495195E+01
    Loc. psp. energy= -2.57729385084068E+03
    Spherical terms = -5.36592580536734E+01
    >>>>> Internal E= -8.05978163945232E+02

    -kT*entropy     = -6.03088120798253E-02
    >>>>>>>>> Etotal= -8.06038472757312E+02

 "Double-counting" decomposition of free energy:
    Band energy     = -1.18059336914789E+02
    Ewald energy    =  4.50522925486291E+02
    PspCore energy  =  4.45939586495195E+01
    Dble-C XC-energy= -1.16704153245678E+03
    Spherical terms = -1.60310296527893E+01
    >>>>> Internal E= -8.06015014888552E+02

    -kT*entropy     = -6.03088120798253E-02
    >>>> Etotal (DC)= -8.06075323700632E+02

  >Total energy in eV           = -2.19334222881274E+04
  >Total DC energy in eV        = -2.19344250532916E+04
--------------------------------------------------------------------------------

 Cartesian components of stress tensor (hartree/bohr^3)
  sigma(1 1)=  1.43436369E-03  sigma(3 2)=  0.00000000E+00
  sigma(2 2)=  1.78053867E-03  sigma(3 1)=  0.00000000E+00
  sigma(3 3)=  1.29752532E-03  sigma(2 1)=  0.00000000E+00

-Cartesian components of stress tensor (GPa)         [Pressure= -4.4253E+01 GPa]
- sigma(1 1)=  4.22004296E+01  sigma(3 2)=  0.00000000E+00
- sigma(2 2)=  5.23852476E+01  sigma(3 1)=  0.00000000E+00
- sigma(3 3)=  3.81745064E+01  sigma(2 1)=  0.00000000E+00

== END DATASET(S) ==============================================================
================================================================================
  
 -outvars: echo values of variables after computation  --------
        accesswff           1
            acell      7.5589045315E+00  7.5589045315E+00  5.2912331721E+01 Bohr
              amu      1.37327000E+02  4.78800000E+01  1.59994000E+01
           diemix      6.00000000E-01
             ecut      1.50000000E+01 Hartree
           etotal     -8.0603847276E+02
           fftalg         401
      fft_opt_lob           2
            fcart     -0.0000000000E+00 -0.0000000000E+00  6.9130307064E-04
                      -0.0000000000E+00 -0.0000000000E+00 -5.7497820195E-03
                      -0.0000000000E+00 -0.0000000000E+00  1.0436973598E-02
                      -0.0000000000E+00 -0.0000000000E+00 -7.0096897574E-03
                      -0.0000000000E+00 -0.0000000000E+00 -5.3657493905E-04
                      -0.0000000000E+00 -0.0000000000E+00  1.0629325835E-04
                      -0.0000000000E+00 -0.0000000000E+00  7.0959828440E-04
                      -0.0000000000E+00 -0.0000000000E+00  3.8196979582E-04
                      -0.0000000000E+00 -0.0000000000E+00 -1.8361684322E-03
                      -0.0000000000E+00 -0.0000000000E+00  1.0055024174E-03
                      -0.0000000000E+00 -0.0000000000E+00  9.9253002032E-04
                      -0.0000000000E+00 -0.0000000000E+00  3.2346462205E-04
                      -0.0000000000E+00 -0.0000000000E+00 -4.5382244512E-04
                      -0.0000000000E+00 -0.0000000000E+00  5.9818050896E-20
                      -0.0000000000E+00 -0.0000000000E+00  5.9818050896E-20
                      -0.0000000000E+00 -0.0000000000E+00  5.9818050896E-20
                      -0.0000000000E+00 -0.0000000000E+00 -3.2346462205E-04
                      -0.0000000000E+00 -0.0000000000E+00  4.5382244512E-04
                      -0.0000000000E+00 -0.0000000000E+00  1.8361684322E-03
                      -0.0000000000E+00 -0.0000000000E+00 -1.0055024174E-03
                      -0.0000000000E+00 -0.0000000000E+00 -9.9253002032E-04
                      -0.0000000000E+00 -0.0000000000E+00 -7.0959828440E-04
                      -0.0000000000E+00 -0.0000000000E+00 -3.8196979582E-04
                      -0.0000000000E+00 -0.0000000000E+00  7.0096897574E-03
                      -0.0000000000E+00 -0.0000000000E+00  5.3657493905E-04
                      -0.0000000000E+00 -0.0000000000E+00 -1.0629325835E-04
                      -0.0000000000E+00 -0.0000000000E+00 -6.9130307064E-04
                      -0.0000000000E+00 -0.0000000000E+00  5.7497820195E-03
                      -0.0000000000E+00 -0.0000000000E+00 -1.0436973598E-02
           iprcch           6
             iscf           3
              ixc           7
              kpt      1.25000000E-01  1.25000000E-01  5.00000000E-01
                       3.75000000E-01  1.25000000E-01  5.00000000E-01
                       1.25000000E-01  3.75000000E-01  5.00000000E-01
                       3.75000000E-01  3.75000000E-01  5.00000000E-01
          kptrlen      3.02356181E+01
         kptrlatt      4  0  0   0  4  0   0  0  1
P           mkmem           1
            natom          29
            nband         120
            ngfft          30      30     192
          ngfftdg          40      40     270
             nkpt           4
           npband           6
            npkpt           4
            nstep         100
             nsym           8
           ntypat           3
              occ      2.000000  2.000000  2.000000  2.000000  2.000000  2.000000
                       2.000000  2.000000  2.000000  2.000000  2.000000  2.000000
                       2.000000  2.000000  2.000000  2.000000  2.000000  2.000000
                       2.000000  2.000000  2.000000  2.000000  2.000000  2.000000
                       2.000000  2.000000  2.000000  2.000000  2.000000  2.000000
                       2.000000  2.000000  2.000000  2.000000  2.000000  2.000000
                       2.000000  2.000000  2.000000  2.000000  2.000000  2.000000
                       2.000000  2.000000  2.000000  2.000000  2.000000  2.000000
                       2.000000  2.000000  2.000000  2.000000  2.000000  2.000000
                       2.000000  2.000000  2.000000  2.000000  2.000000  2.000000
                       2.000000  2.000000  2.000000  2.000000  2.000000  2.000000
                       2.000000  2.000000  2.000000  2.000000  2.000000  2.000000
                       2.000000  2.000000  2.000000  2.000000  2.000000  2.000000
                       2.000000  1.999999  1.999999  1.999999  1.999999  1.999998
                       1.999996  1.999993  1.999993  1.999991  1.999987  1.999965
                       1.999965  1.999873  1.999790  1.999647  1.999508  1.999346
                       1.999306  1.998925  1.998802  1.998291  1.997369  1.996845
                       1.996510  1.995234  1.994625  1.993315  1.991835  1.988419
                       1.986147  1.979075  1.973028  1.967022  1.965228  1.964480
                       1.913801  1.913631  0.321286  0.297164  0.169002  0.157288
                       2.000000  2.000000  2.000000  2.000000  2.000000  2.000000
                       2.000000  2.000000  2.000000  2.000000  2.000000  2.000000
                       2.000000  2.000000  2.000000  2.000000  2.000000  2.000000
                       2.000000  2.000000  2.000000  2.000000  2.000000  2.000000
                       2.000000  2.000000  2.000000  2.000000  2.000000  2.000000
                       2.000000  2.000000  2.000000  2.000000  2.000000  2.000000
                       2.000000  2.000000  2.000000  2.000000  2.000000  2.000000
                       2.000000  2.000000  2.000000  2.000000  2.000000  2.000000
                       2.000000  2.000000  2.000000  2.000000  2.000000  2.000000
                       2.000000  2.000000  2.000000  2.000000  2.000000  2.000000
                       2.000000  2.000000  2.000000  2.000000  2.000000  2.000000
                       2.000000  2.000000  2.000000  2.000000  2.000000  2.000000
                       2.000000  2.000000  2.000000  2.000000  2.000000  2.000000
                       2.000000  2.000000  2.000000  2.000000  2.000000  2.000000
                       2.000000  1.999999  1.999999  1.999999  1.999999  1.999999
                       1.999998  1.999984  1.999972  1.999951  1.999897  1.999880
                       1.999874  1.999528  1.998698  1.998617  1.997610  1.997419
                       1.996064  1.995375  1.994239  1.994085  1.991705  1.990606
                       1.985758  1.978478  1.977922  1.968625  1.967414  1.959489
                       1.905836  1.905140  0.132767  0.078096  0.077478  0.064928
                       2.000000  2.000000  2.000000  2.000000  2.000000  2.000000
                       2.000000  2.000000  2.000000  2.000000  2.000000  2.000000
                       2.000000  2.000000  2.000000  2.000000  2.000000  2.000000
                       2.000000  2.000000  2.000000  2.000000  2.000000  2.000000
                       2.000000  2.000000  2.000000  2.000000  2.000000  2.000000
                       2.000000  2.000000  2.000000  2.000000  2.000000  2.000000
                       2.000000  2.000000  2.000000  2.000000  2.000000  2.000000
                       2.000000  2.000000  2.000000  2.000000  2.000000  2.000000
                       2.000000  2.000000  2.000000  2.000000  2.000000  2.000000
                       2.000000  2.000000  2.000000  2.000000  2.000000  2.000000
                       2.000000  2.000000  2.000000  2.000000  2.000000  2.000000
                       2.000000  2.000000  2.000000  2.000000  2.000000  2.000000
                       2.000000  2.000000  2.000000  2.000000  2.000000  2.000000
                       2.000000  2.000000  2.000000  2.000000  2.000000  2.000000
                       2.000000  2.000000  2.000000  1.999999  1.999999  1.999996
                       1.999995  1.999995  1.999991  1.999982  1.999981  1.999964
                       1.999934  1.999858  1.999645  1.999587  1.999188  1.999153
                       1.997888  1.997354  1.996502  1.996359  1.995338  1.995281
                       1.991104  1.984364  1.981333  1.968162  1.961918  1.954080
                       1.889355  1.889026  0.280469  0.249881  0.109766  0.045023
                       2.000000  2.000000  2.000000  2.000000  2.000000  2.000000
                       2.000000  2.000000  2.000000  2.000000  2.000000  2.000000
                       2.000000  2.000000  2.000000  2.000000  2.000000  2.000000
                       2.000000  2.000000  2.000000  2.000000  2.000000  2.000000
                       2.000000  2.000000  2.000000  2.000000  2.000000  2.000000
                       2.000000  2.000000  2.000000  2.000000  2.000000  2.000000
                       2.000000  2.000000  2.000000  2.000000  2.000000  2.000000
                       2.000000  2.000000  2.000000  2.000000  2.000000  2.000000
                       2.000000  2.000000  2.000000  2.000000  2.000000  2.000000
                       2.000000  2.000000  2.000000  2.000000  2.000000  2.000000
                       2.000000  2.000000  2.000000  2.000000  2.000000  2.000000
                       2.000000  2.000000  2.000000  2.000000  2.000000  2.000000
                       2.000000  2.000000  2.000000  2.000000  2.000000  2.000000
                       2.000000  2.000000  2.000000  2.000000  2.000000  2.000000
                       2.000000  2.000000  2.000000  2.000000  2.000000  2.000000
                       1.999999  1.999999  1.999999  1.999999  1.999998  1.999995
                       1.999968  1.999831  1.999618  1.999290  1.998838  1.996077
                       1.992251  1.992109  1.992011  1.982703  1.969993  1.969513
                       1.958520  1.956159  1.950406  1.949867  1.936451  1.925458
                       1.746720  1.744641  0.057097  0.056915  0.017660  0.017347
           occopt           7
        paral_kgb           1
        pawecutdg      3.00000000E+01 Hartree
           prtden           0
           shiftk      5.00000000E-01  5.00000000E-01  5.00000000E-01
          spgroup          47
           strten      1.4343636909E-03  1.7805386748E-03  1.2975253183E-03
                       0.0000000000E+00  0.0000000000E+00  0.0000000000E+00
           symrel      1  0  0   0  1  0   0  0  1      -1  0  0   0 -1  0   0  0 -1
                      -1  0  0   0  1  0   0  0 -1       1  0  0   0 -1  0   0  0  1
                      -1  0  0   0 -1  0   0  0  1       1  0  0   0  1  0   0  0 -1
                       1  0  0   0 -1  0   0  0 -1      -1  0  0   0  1  0   0  0  1
            tnons      0.0000000  0.0000000  0.0000000     0.0000000  0.0000000 -0.4285714
                       0.0000000  0.0000000 -0.4285714     0.0000000  0.0000000  0.0000000
                       0.0000000  0.0000000  0.0000000     0.0000000  0.0000000 -0.4285714
                       0.0000000  0.0000000 -0.4285714     0.0000000  0.0000000  0.0000000
           tolwfr      1.00000000E-22
            typat      3  3  2  3  3  2  1  3  3  3  2  1  3  3  3  2  1  3  3  3
                       2  1  3  3  3  2  3  3  2
           useylm           1
         wfoptalg          14
              wtk        0.25000    0.25000    0.25000    0.25000
           xangst      0.0000000000E+00  0.0000000000E+00 -2.2560597002E+00
                       2.0000000000E+00  2.0000000000E+00 -1.7358821218E+00
                       0.0000000000E+00  2.0000000000E+00 -1.9382320765E+00
                       2.0000000000E+00  0.0000000000E+00  3.4528873183E-01
                       0.0000000000E+00  2.0000000000E+00 -5.5854849961E-02
                       2.0000000000E+00  2.0000000000E+00  1.7294657512E-01
                       0.0000000000E+00  0.0000000000E+00  2.1069676394E+00
                       2.0000000000E+00  2.0000000000E+00  2.1255940918E+00
                       2.0000000000E+00  0.0000000000E+00  4.1033165069E+00
                       0.0000000000E+00  2.0000000000E+00  4.0568887933E+00
                       2.0000000000E+00  2.0000000000E+00  4.0843127188E+00
                       0.0000000000E+00  0.0000000000E+00  6.0394536283E+00
                       2.0000000000E+00  2.0000000000E+00  6.0414127394E+00
                       2.0000000000E+00  0.0000000000E+00  8.0000000001E+00
                       0.0000000000E+00  2.0000000000E+00  8.0000000001E+00
                       2.0000000000E+00  2.0000000000E+00  8.0000000001E+00
                       0.0000000000E+00  0.0000000000E+00  9.9605463718E+00
                       2.0000000000E+00  2.0000000000E+00  9.9585872607E+00
                       2.0000000000E+00  0.0000000000E+00  1.1896683493E+01
                       0.0000000000E+00  2.0000000000E+00  1.1943111207E+01
                       2.0000000000E+00  2.0000000000E+00  1.1915687281E+01
                       0.0000000000E+00  0.0000000000E+00  1.3893032361E+01
                       2.0000000000E+00  2.0000000000E+00  1.3874405908E+01
                       2.0000000000E+00  0.0000000000E+00  1.5654711268E+01
                       0.0000000000E+00  2.0000000000E+00  1.6055854850E+01
                       2.0000000000E+00  2.0000000000E+00  1.5827053425E+01
                       0.0000000000E+00  0.0000000000E+00  1.8256059700E+01
                       2.0000000000E+00  2.0000000000E+00  1.7735882122E+01
                       0.0000000000E+00  2.0000000000E+00  1.7938232077E+01
            xcart      0.0000000000E+00  0.0000000000E+00 -4.2633349728E+00
                       3.7794522658E+00  3.7794522658E+00 -3.2803418091E+00
                       0.0000000000E+00  3.7794522658E+00 -3.6627278066E+00
                       3.7794522658E+00  0.0000000000E+00  6.5250113994E-01
                       0.0000000000E+00  3.7794522658E+00 -1.0555036962E-01
                       3.7794522658E+00  3.7794522658E+00  3.2682166259E-01
                       0.0000000000E+00  0.0000000000E+00  3.9815918094E+00
                       3.7794522658E+00  3.7794522658E+00  4.0167907032E+00
                       3.7794522658E+00  0.0000000000E+00  7.7541444346E+00
                       0.0000000000E+00  3.7794522658E+00  7.6664087709E+00
                       3.7794522658E+00  3.7794522658E+00  7.7182324795E+00
                       0.0000000000E+00  0.0000000000E+00  1.1412913350E+01
                       3.7794522658E+00  3.7794522658E+00  1.1416615533E+01
                       3.7794522658E+00  0.0000000000E+00  1.5117809063E+01
                       0.0000000000E+00  3.7794522658E+00  1.5117809063E+01
                       3.7794522658E+00  3.7794522658E+00  1.5117809063E+01
                       0.0000000000E+00  0.0000000000E+00  1.8822704777E+01
                       3.7794522658E+00  3.7794522658E+00  1.8819002593E+01
                       3.7794522658E+00  0.0000000000E+00  2.2481473692E+01
                       0.0000000000E+00  3.7794522658E+00  2.2569209355E+01
                       3.7794522658E+00  3.7794522658E+00  2.2517385647E+01
                       0.0000000000E+00  0.0000000000E+00  2.6254026317E+01
                       3.7794522658E+00  3.7794522658E+00  2.6218827423E+01
                       3.7794522658E+00  0.0000000000E+00  2.9583116986E+01
                       0.0000000000E+00  3.7794522658E+00  3.0341168496E+01
                       3.7794522658E+00  3.7794522658E+00  2.9908796464E+01
                       0.0000000000E+00  0.0000000000E+00  3.4498953099E+01
                       3.7794522658E+00  3.7794522658E+00  3.3515959936E+01
                       0.0000000000E+00  3.7794522658E+00  3.3898345933E+01
             xred      0.0000000000E+00  0.0000000000E+00 -8.0573560721E-02
                       5.0000000000E-01  5.0000000000E-01 -6.1995790064E-02
                       0.0000000000E+00  5.0000000000E-01 -6.9222574162E-02
                       5.0000000000E-01  0.0000000000E+00  1.2331740423E-02
                       0.0000000000E+00  5.0000000000E-01 -1.9948160700E-03
                       5.0000000000E-01  5.0000000000E-01  6.1766633970E-03
                       0.0000000000E+00  0.0000000000E+00  7.5248844266E-02
                       5.0000000000E-01  5.0000000000E-01  7.5914074707E-02
                       5.0000000000E-01  0.0000000000E+00  1.4654701810E-01
                       0.0000000000E+00  5.0000000000E-01  1.4488888548E-01
                       5.0000000000E-01  5.0000000000E-01  1.4586831138E-01
                       0.0000000000E+00  0.0000000000E+00  2.1569477244E-01
                       5.0000000000E-01  5.0000000000E-01  2.1576474069E-01
                       5.0000000000E-01  0.0000000000E+00  2.8571428572E-01
                       0.0000000000E+00  5.0000000000E-01  2.8571428572E-01
                       5.0000000000E-01  5.0000000000E-01  2.8571428572E-01
                       0.0000000000E+00  0.0000000000E+00  3.5573379899E-01
                       5.0000000000E-01  5.0000000000E-01  3.5566383074E-01
                       5.0000000000E-01  0.0000000000E+00  4.2488155333E-01
                       0.0000000000E+00  5.0000000000E-01  4.2653968596E-01
                       5.0000000000E-01  5.0000000000E-01  4.2556026005E-01
                       0.0000000000E+00  0.0000000000E+00  4.9617972717E-01
                       5.0000000000E-01  5.0000000000E-01  4.9551449673E-01
                       5.0000000000E-01  0.0000000000E+00  5.5909683101E-01
                       0.0000000000E+00  5.0000000000E-01  5.7342338750E-01
                       5.0000000000E-01  5.0000000000E-01  5.6525190804E-01
                       0.0000000000E+00  0.0000000000E+00  6.5200213215E-01
                       5.0000000000E-01  5.0000000000E-01  6.3342436150E-01
                       0.0000000000E+00  5.0000000000E-01  6.4065114560E-01
            znucl       56.00000   22.00000    8.00000

================================================================================


- Timing analysis has been suppressed with timopt=0



================================================================================

 Suggested references for the acknowledgment of ABINIT usage.

 The users of ABINIT have little formal obligations with respect to the ABINIT group
 (those specified in the GNU General Public License, http://www.gnu.org/copyleft/gpl.txt).
 However, it is common practice in the scientific literature,
 to acknowledge the efforts of people that have made the research possible.
 In this spirit, please find below suggested citations of work written by ABINIT developers,
 corresponding to implementations inside of ABINIT that you have used in the present run.
 Note also that it will be of great value to readers of publications presenting these results,
 to read papers enabling them to understand the theoretical formalism and details
 of the ABINIT implementation.
 For information on why they are suggested, see also http://www.abinit.org/about/?text=acknowledgments.

 [1] Large scale ab initio calculations based on three levels of parallelization
 F. Bottin, S. Leroux, A. Knyazev, G. Zerah, Comput. Mat. Science 42, 329, (2008).
 Comment : in case paral_kgb is non-zero. Strong suggestion to cite this paper in your publications.
 This paper is also available at http://www.arxiv.org/abs/0707.3405

 [2] Implementation of the Projector Augmented-Wave Method in the ABINIT code.
 M. Torrent, F. Jollet, F. Bottin, G. Zerah, and X. Gonze Comput. Mat. Science 42, 337, (2008).
 Comment : PAW calculations. Strong suggestion to cite this paper.

 [3] ABINIT : First-principles approach of materials and nanosystem properties.
 X. Gonze, B. Amadon, P.-M. Anglade, J.-M. Beuken, F. Bottin, P. Boulanger, F. Bruneval,
 D. Caliste, R. Caracas, M. Cote, T. Deutsch, L. Genovese, Ph. Ghosez, M. Giantomassi
 S. Goedecker, D.R. Hamann, P. Hermet, F. Jollet, G. Jomard, S. Leroux, M. Mancini, S. Mazevet,
 M.J.T. Oliveira, G. Onida, Y. Pouillon, T. Rangel, G.-M. Rignanese, D. Sangalli, R. Shaltaf,
 M. Torrent, M.J. Verstraete, G. Zerah, J.W. Zwanziger
 Computer Phys. Comm. 180, 2582-2615 (2009).
 Comment : the third generic paper describing the ABINIT project.
 Note that a version of this paper, that is not formatted for Computer Phys. Comm. 
 is available at http://www.abinit.org/about/ABINIT_CPC_v10.pdf .
 The licence allows the authors to put it on the Web.

 [4] A brief introduction to the ABINIT software package.
 X. Gonze, G.-M. Rignanese, M. Verstraete, J.-M. Beuken, Y. Pouillon, R. Caracas, F. Jollet,
 M. Torrent, G. Zerah, M. Mikami, Ph. Ghosez, M. Veithen, J.-Y. Raty, V. Olevano, F. Bruneval,
 L. Reining, R. Godby, G. Onida, D.R. Hamann, and D.C. Allan.
 Z. Kristallogr. 220, 558-562 (2005).
 Comment : the second generic paper describing the ABINIT project. Note that this paper
 should be cited especially if you are using the GW part of ABINIT, as several authors
 of this part are not in the list of authors of the first or third paper.
 The .pdf of the latter paper is available at http://www.abinit.org/about/zfk_0505-06_558-562.pdf.
 Note that it should not redistributed (Copyright by Oldenburg Wissenshaftverlag,
 the licence allows the authors to put it on the Web).


 And optionally :

 [5] First-principles computation of material properties : the ABINIT software project. 
 X. Gonze, J.-M. Beuken, R. Caracas, F. Detraux, M. Fuchs, G.-M. Rignanese, L. Sindic,
 M. Verstraete, G. Zerah, F. Jollet, M. Torrent, A. Roy, M. Mikami, Ph. Ghosez, J.-Y. Raty, D.C. Allan.
 Computational Materials Science 25, 478-492 (2002). http://dx.doi.org/10.1016/S0927-0256(02)00325-7
 Comment : the original paper describing the ABINIT project.
-
- Proc.   0 individual time (sec): cpu=        909.0  wall=        910.3

================================================================================

 Calculation completed.
.Delivered   10 WARNINGs and   6 COMMENTs to log file.
+Overall time at end (sec) : cpu=      21835.7  wall=      21846.3
