
.Version 7.9.3 of ABINIT 
.(MPI version, prepared for a x86_64_linux_gnu4.7 computer) 

.Copyright (C) 1998-2014 ABINIT group . 
 ABINIT comes with ABSOLUTELY NO WARRANTY.
 It is free software, and you are welcome to redistribute it
 under certain conditions (GNU General Public License,
 see ~abinit/COPYING or http://www.gnu.org/copyleft/gpl.txt).

 ABINIT is a project of the Universite Catholique de Louvain,
 Corning Inc. and other collaborators, see ~abinit/doc/developers/contributors.txt .
 Please read ~abinit/doc/users/acknowledgments.html for suggested
 acknowledgments of the ABINIT effort.
 For more information, see http://www.abinit.org .

.Starting date : Sat 30 Aug 2014.
- ( at 22h44 )
  
- input  file    -> t23.in
- output file    -> t23.out
- root for input  files -> t23i
- root for output files -> t23o


 DATASET    1 : space group Pm -3 m (#221); Bravais cP (primitive cubic)
================================================================================
 Values of the parameters that define the memory need for DATASET  1.
   intxc =         0  ionmov =         0    iscf =        17 xclevel =         1
  lmnmax =        22   lnmax =         8   mband =        27  mffmem =         1
P  mgfft =        15   mkmem =         4 mpssoang=         3     mpw =       152
  mqgrid =      3001   natom =         5    nfft =      3375    nkpt =         4
  nloalg =         4  nspden =         1 nspinor =         1  nsppol =         1
    nsym =        48  n1xccc =         1  ntypat =         3  occopt =         3
 PAW method is used; the additional fine FFT grid is defined by:
   mgfftf=        16    nfftf =      4096
================================================================================
P This job should need less than                       7.278 Mbytes of memory.
  Rough estimation (10% accuracy) of disk space for files :
_ WF disk file :      0.252 Mbytes ; DEN or POT disk file :      0.033 Mbytes.
================================================================================


 DATASET    2 : space group P1 (#  1); Bravais aP (primitive triclinic)
================================================================================
 Values of the parameters that define the memory need for DATASET  2.
   intxc =         0  ionmov =         0    iscf =        17 xclevel =         1
  lmnmax =        22   lnmax =         8   mband =        27  mffmem =         1
P  mgfft =        15   mkmem =         8 mpssoang=         3     mpw =       152
  mqgrid =      3001   natom =         5    nfft =      3375    nkpt =         8
  nloalg =         4  nspden =         1 nspinor =         1  nsppol =         1
    nsym =         1  n1xccc =         1  ntypat =         3  occopt =         3
 PAW method is used; the additional fine FFT grid is defined by:
   mgfftf=        16    nfftf =      4096
================================================================================
P This job should need less than                       7.619 Mbytes of memory.
  Rough estimation (10% accuracy) of disk space for files :
_ WF disk file :      0.503 Mbytes ; DEN or POT disk file :      0.033 Mbytes.
================================================================================


 DATASET    3 : space group P1 (#  1); Bravais aP (primitive triclinic)
================================================================================
 Values of the parameters that define the memory need for DATASET  3.
   intxc =         0  ionmov =         0    iscf =        17 xclevel =         1
  lmnmax =        22   lnmax =         8   mband =        27  mffmem =         1
P  mgfft =        15   mkmem =         8 mpssoang=         3     mpw =       152
  mqgrid =      3001   natom =         5    nfft =      3375    nkpt =         8
  nloalg =         4  nspden =         1 nspinor =         1  nsppol =         1
    nsym =         1  n1xccc =         1  ntypat =         3  occopt =         3
 PAW method is used; the additional fine FFT grid is defined by:
   mgfftf=        16    nfftf =      4096
================================================================================
P This job should need less than                       7.619 Mbytes of memory.
  Rough estimation (10% accuracy) of disk space for files :
_ WF disk file :      0.503 Mbytes ; DEN or POT disk file :      0.033 Mbytes.
================================================================================

--------------------------------------------------------------------------------
------------- Echo of variables that govern the present computation ------------
--------------------------------------------------------------------------------
-
- outvars: echo of selected default values                                      
-   accesswff0 =  0 , fftalg0 =112 , wfoptalg0 = 10
-
- outvars: echo of global parameters not present in the input file              
-  max_nthreads =    0
-
 -outvars: echo values of preprocessed input variables --------
            acell      7.2605000000E+00  7.2605000000E+00  7.2605000000E+00 Bohr
              amu      5.09415000E+01  8.76200000E+01  1.59994000E+01
        dmatpuopt           1
        dmftbandf1          0
        dmftbandf2          0
        dmftbandf3         25
        dmftbandi1          0
        dmftbandi2          0
        dmftbandi3         21
        dmft_nwli1          0
        dmft_nwli2          0
        dmft_nwli3     200000
        dmft_nwlo1          0
        dmft_nwlo2          0
        dmft_nwlo3        100
        dmft_solv1          5
        dmft_solv2          5
        dmft_solv3          2
             ecut      4.00000000E+00 Hartree
-          fftalg         112
        f4of2_sla      0.00000000E+00  0.00000000E+00  0.00000000E+00
           getden1          0
           getden2         -1
           getden3          0
           getwfk1          0
           getwfk2          0
           getwfk3         -1
           istwfk1       1    1    1    1
           istwfk2       1    1    1    1    1    1    1    1
           istwfk3       1    1    1    1    1    1    1    1
              ixc           7
           jdtset        1    2    3
              kpt1     0.00000000E+00  0.00000000E+00  0.00000000E+00
                       5.00000000E-01  0.00000000E+00  0.00000000E+00
                       5.00000000E-01  5.00000000E-01  0.00000000E+00
                       5.00000000E-01  5.00000000E-01  5.00000000E-01
              kpt2     0.00000000E+00  0.00000000E+00  0.00000000E+00
                       5.00000000E-01  0.00000000E+00  0.00000000E+00
                       0.00000000E+00  5.00000000E-01  0.00000000E+00
                       5.00000000E-01  5.00000000E-01  0.00000000E+00
                       0.00000000E+00  0.00000000E+00  5.00000000E-01
                       5.00000000E-01  0.00000000E+00  5.00000000E-01
                       0.00000000E+00  5.00000000E-01  5.00000000E-01
                       5.00000000E-01  5.00000000E-01  5.00000000E-01
              kpt3     0.00000000E+00  0.00000000E+00  0.00000000E+00
                       5.00000000E-01  0.00000000E+00  0.00000000E+00
                       0.00000000E+00  5.00000000E-01  0.00000000E+00
                       5.00000000E-01  5.00000000E-01  0.00000000E+00
                       0.00000000E+00  0.00000000E+00  5.00000000E-01
                       5.00000000E-01  0.00000000E+00  5.00000000E-01
                       0.00000000E+00  5.00000000E-01  5.00000000E-01
                       5.00000000E-01  5.00000000E-01  5.00000000E-01
         kptrlatt        2    0    0      0    2    0      0    0    2
          kptrlen      1.45210000E+01
          kssform           3
            lpawu           2      -1      -1
P           mkmem1          4
P           mkmem2          8
P           mkmem3          8
            natom           5
            nband1         27
            nband2         27
            nband3         27
         nbandkss1          0
         nbandkss2          0
         nbandkss3         -1
           ndtset           3
            ngfft          15      15      15
          ngfftdg          16      16      16
             nkpt1          4
             nkpt2          8
             nkpt3          8
            nline           5
           nnsclo1          2
           nnsclo2          5
           nnsclo3          2
            nstep1         15
            nstep2         10
            nstep3         15
             nsym1         48
             nsym2          1
             nsym3          1
           ntypat           3
              occ1     2.000000  2.000000  2.000000  2.000000  2.000000  2.000000
                       2.000000  2.000000  2.000000  2.000000  2.000000  2.000000
                       2.000000  2.000000  2.000000  2.000000  2.000000  2.000000
                       2.000000  2.000000  1.000000  0.000000  0.000000  0.000000
                       0.000000  0.000000  0.000000
                       2.000000  2.000000  2.000000  2.000000  2.000000  2.000000
                       2.000000  2.000000  2.000000  2.000000  2.000000  2.000000
                       2.000000  2.000000  2.000000  2.000000  2.000000  2.000000
                       2.000000  2.000000  1.000000  0.000000  0.000000  0.000000
                       0.000000  0.000000  0.000000
                       2.000000  2.000000  2.000000  2.000000  2.000000  2.000000
                       2.000000  2.000000  2.000000  2.000000  2.000000  2.000000
                       2.000000  2.000000  2.000000  2.000000  2.000000  2.000000
                       2.000000  2.000000  1.000000  0.000000  0.000000  0.000000
                       0.000000  0.000000  0.000000
                       2.000000  2.000000  2.000000  2.000000  2.000000  2.000000
                       2.000000  2.000000  2.000000  2.000000  2.000000  2.000000
                       2.000000  2.000000  2.000000  2.000000  2.000000  2.000000
                       2.000000  2.000000  1.000000  0.000000  0.000000  0.000000
                       0.000000  0.000000  0.000000
              occ2     2.000000  2.000000  2.000000  2.000000  2.000000  2.000000
                       2.000000  2.000000  2.000000  2.000000  2.000000  2.000000
                       2.000000  2.000000  2.000000  2.000000  2.000000  2.000000
                       2.000000  2.000000  1.000000  0.000000  0.000000  0.000000
                       0.000000  0.000000  0.000000
                       2.000000  2.000000  2.000000  2.000000  2.000000  2.000000
                       2.000000  2.000000  2.000000  2.000000  2.000000  2.000000
                       2.000000  2.000000  2.000000  2.000000  2.000000  2.000000
                       2.000000  2.000000  1.000000  0.000000  0.000000  0.000000
                       0.000000  0.000000  0.000000
                       2.000000  2.000000  2.000000  2.000000  2.000000  2.000000
                       2.000000  2.000000  2.000000  2.000000  2.000000  2.000000
                       2.000000  2.000000  2.000000  2.000000  2.000000  2.000000
                       2.000000  2.000000  1.000000  0.000000  0.000000  0.000000
                       0.000000  0.000000  0.000000
                       2.000000  2.000000  2.000000  2.000000  2.000000  2.000000
                       2.000000  2.000000  2.000000  2.000000  2.000000  2.000000
                       2.000000  2.000000  2.000000  2.000000  2.000000  2.000000
                       2.000000  2.000000  1.000000  0.000000  0.000000  0.000000
                       0.000000  0.000000  0.000000
                       2.000000  2.000000  2.000000  2.000000  2.000000  2.000000
                       2.000000  2.000000  2.000000  2.000000  2.000000  2.000000
                       2.000000  2.000000  2.000000  2.000000  2.000000  2.000000
                       2.000000  2.000000  1.000000  0.000000  0.000000  0.000000
                       0.000000  0.000000  0.000000
                       2.000000  2.000000  2.000000  2.000000  2.000000  2.000000
                       2.000000  2.000000  2.000000  2.000000  2.000000  2.000000
                       2.000000  2.000000  2.000000  2.000000  2.000000  2.000000
                       2.000000  2.000000  1.000000  0.000000  0.000000  0.000000
                       0.000000  0.000000  0.000000
                       2.000000  2.000000  2.000000  2.000000  2.000000  2.000000
                       2.000000  2.000000  2.000000  2.000000  2.000000  2.000000
                       2.000000  2.000000  2.000000  2.000000  2.000000  2.000000
                       2.000000  2.000000  1.000000  0.000000  0.000000  0.000000
                       0.000000  0.000000  0.000000
                       2.000000  2.000000  2.000000  2.000000  2.000000  2.000000
                       2.000000  2.000000  2.000000  2.000000  2.000000  2.000000
                       2.000000  2.000000  2.000000  2.000000  2.000000  2.000000
                       2.000000  2.000000  1.000000  0.000000  0.000000  0.000000
                       0.000000  0.000000  0.000000
              occ3     2.000000  2.000000  2.000000  2.000000  2.000000  2.000000
                       2.000000  2.000000  2.000000  2.000000  2.000000  2.000000
                       2.000000  2.000000  2.000000  2.000000  2.000000  2.000000
                       2.000000  2.000000  1.000000  0.000000  0.000000  0.000000
                       0.000000  0.000000  0.000000
                       2.000000  2.000000  2.000000  2.000000  2.000000  2.000000
                       2.000000  2.000000  2.000000  2.000000  2.000000  2.000000
                       2.000000  2.000000  2.000000  2.000000  2.000000  2.000000
                       2.000000  2.000000  1.000000  0.000000  0.000000  0.000000
                       0.000000  0.000000  0.000000
                       2.000000  2.000000  2.000000  2.000000  2.000000  2.000000
                       2.000000  2.000000  2.000000  2.000000  2.000000  2.000000
                       2.000000  2.000000  2.000000  2.000000  2.000000  2.000000
                       2.000000  2.000000  1.000000  0.000000  0.000000  0.000000
                       0.000000  0.000000  0.000000
                       2.000000  2.000000  2.000000  2.000000  2.000000  2.000000
                       2.000000  2.000000  2.000000  2.000000  2.000000  2.000000
                       2.000000  2.000000  2.000000  2.000000  2.000000  2.000000
                       2.000000  2.000000  1.000000  0.000000  0.000000  0.000000
                       0.000000  0.000000  0.000000
                       2.000000  2.000000  2.000000  2.000000  2.000000  2.000000
                       2.000000  2.000000  2.000000  2.000000  2.000000  2.000000
                       2.000000  2.000000  2.000000  2.000000  2.000000  2.000000
                       2.000000  2.000000  1.000000  0.000000  0.000000  0.000000
                       0.000000  0.000000  0.000000
                       2.000000  2.000000  2.000000  2.000000  2.000000  2.000000
                       2.000000  2.000000  2.000000  2.000000  2.000000  2.000000
                       2.000000  2.000000  2.000000  2.000000  2.000000  2.000000
                       2.000000  2.000000  1.000000  0.000000  0.000000  0.000000
                       0.000000  0.000000  0.000000
                       2.000000  2.000000  2.000000  2.000000  2.000000  2.000000
                       2.000000  2.000000  2.000000  2.000000  2.000000  2.000000
                       2.000000  2.000000  2.000000  2.000000  2.000000  2.000000
                       2.000000  2.000000  1.000000  0.000000  0.000000  0.000000
                       0.000000  0.000000  0.000000
                       2.000000  2.000000  2.000000  2.000000  2.000000  2.000000
                       2.000000  2.000000  2.000000  2.000000  2.000000  2.000000
                       2.000000  2.000000  2.000000  2.000000  2.000000  2.000000
                       2.000000  2.000000  1.000000  0.000000  0.000000  0.000000
                       0.000000  0.000000  0.000000
           occopt           3
        pawecutdg      5.00000000E+00 Hartree
          ppmodel           3
          spgroup1        221
          spgroup2          1
          spgroup3          1
           symafm1       1    1    1    1    1    1    1    1    1    1
                         1    1    1    1    1    1    1    1    1    1
                         1    1    1    1    1    1    1    1    1    1
                         1    1    1    1    1    1    1    1    1    1
                         1    1    1    1    1    1    1    1
           symafm2       1
           symafm3       1
           symrel1     1  0  0   0  1  0   0  0  1      -1  0  0   0 -1  0   0  0 -1
                      -1  0  0   0  1  0   0  0 -1       1  0  0   0 -1  0   0  0  1
                      -1  0  0   0 -1  0   0  0  1       1  0  0   0  1  0   0  0 -1
                       1  0  0   0 -1  0   0  0 -1      -1  0  0   0  1  0   0  0  1
                       0  1  0   1  0  0   0  0  1       0 -1  0  -1  0  0   0  0 -1
                       0 -1  0   1  0  0   0  0 -1       0  1  0  -1  0  0   0  0  1
                       0 -1  0  -1  0  0   0  0  1       0  1  0   1  0  0   0  0 -1
                       0  1  0  -1  0  0   0  0 -1       0 -1  0   1  0  0   0  0  1
                       0  0  1   1  0  0   0  1  0       0  0 -1  -1  0  0   0 -1  0
                       0  0 -1   1  0  0   0 -1  0       0  0  1  -1  0  0   0  1  0
                       0  0 -1  -1  0  0   0  1  0       0  0  1   1  0  0   0 -1  0
                       0  0  1  -1  0  0   0 -1  0       0  0 -1   1  0  0   0  1  0
                       1  0  0   0  0  1   0  1  0      -1  0  0   0  0 -1   0 -1  0
                      -1  0  0   0  0  1   0 -1  0       1  0  0   0  0 -1   0  1  0
                      -1  0  0   0  0 -1   0  1  0       1  0  0   0  0  1   0 -1  0
                       1  0  0   0  0 -1   0 -1  0      -1  0  0   0  0  1   0  1  0
                       0  1  0   0  0  1   1  0  0       0 -1  0   0  0 -1  -1  0  0
                       0 -1  0   0  0  1  -1  0  0       0  1  0   0  0 -1   1  0  0
                       0 -1  0   0  0 -1   1  0  0       0  1  0   0  0  1  -1  0  0
                       0  1  0   0  0 -1  -1  0  0       0 -1  0   0  0  1   1  0  0
                       0  0  1   0  1  0   1  0  0       0  0 -1   0 -1  0  -1  0  0
                       0  0 -1   0  1  0  -1  0  0       0  0  1   0 -1  0   1  0  0
                       0  0 -1   0 -1  0   1  0  0       0  0  1   0  1  0  -1  0  0
                       0  0  1   0 -1  0  -1  0  0       0  0 -1   0  1  0   1  0  0
           symrel2     1  0  0   0  1  0   0  0  1
           symrel3     1  0  0   0  1  0   0  0  1
            tnons1     0.0000000  0.0000000  0.0000000     0.0000000  0.0000000  0.0000000
                       0.0000000  0.0000000  0.0000000     0.0000000  0.0000000  0.0000000
                       0.0000000  0.0000000  0.0000000     0.0000000  0.0000000  0.0000000
                       0.0000000  0.0000000  0.0000000     0.0000000  0.0000000  0.0000000
                       0.0000000  0.0000000  0.0000000     0.0000000  0.0000000  0.0000000
                       0.0000000  0.0000000  0.0000000     0.0000000  0.0000000  0.0000000
                       0.0000000  0.0000000  0.0000000     0.0000000  0.0000000  0.0000000
                       0.0000000  0.0000000  0.0000000     0.0000000  0.0000000  0.0000000
                       0.0000000  0.0000000  0.0000000     0.0000000  0.0000000  0.0000000
                       0.0000000  0.0000000  0.0000000     0.0000000  0.0000000  0.0000000
                       0.0000000  0.0000000  0.0000000     0.0000000  0.0000000  0.0000000
                       0.0000000  0.0000000  0.0000000     0.0000000  0.0000000  0.0000000
                       0.0000000  0.0000000  0.0000000     0.0000000  0.0000000  0.0000000
                       0.0000000  0.0000000  0.0000000     0.0000000  0.0000000  0.0000000
                       0.0000000  0.0000000  0.0000000     0.0000000  0.0000000  0.0000000
                       0.0000000  0.0000000  0.0000000     0.0000000  0.0000000  0.0000000
                       0.0000000  0.0000000  0.0000000     0.0000000  0.0000000  0.0000000
                       0.0000000  0.0000000  0.0000000     0.0000000  0.0000000  0.0000000
                       0.0000000  0.0000000  0.0000000     0.0000000  0.0000000  0.0000000
                       0.0000000  0.0000000  0.0000000     0.0000000  0.0000000  0.0000000
                       0.0000000  0.0000000  0.0000000     0.0000000  0.0000000  0.0000000
                       0.0000000  0.0000000  0.0000000     0.0000000  0.0000000  0.0000000
                       0.0000000  0.0000000  0.0000000     0.0000000  0.0000000  0.0000000
                       0.0000000  0.0000000  0.0000000     0.0000000  0.0000000  0.0000000
            tnons2     0.0000000  0.0000000  0.0000000
            tnons3     0.0000000  0.0000000  0.0000000
           tolvrs      1.00000000E-15
           tsmear      3.67490000E-03 Hartree
            typat      1  2  3  3  3
          usedmft1          0
          usedmft2          0
          usedmft3          1
          usepawu           1
           useylm           1
              wtk1       0.12500    0.37500    0.37500    0.12500
              wtk2       0.12500    0.12500    0.12500    0.12500    0.12500    0.12500
                         0.12500    0.12500
              wtk3       0.12500    0.12500    0.12500    0.12500    0.12500    0.12500
                         0.12500    0.12500
           xangst      0.0000000000E+00  0.0000000000E+00  0.0000000000E+00
                       1.9210455615E+00  1.9210455615E+00  1.9210455615E+00
                       1.9210455615E+00  0.0000000000E+00  0.0000000000E+00
                       0.0000000000E+00  1.9210455615E+00  0.0000000000E+00
                       0.0000000000E+00  0.0000000000E+00  1.9210455615E+00
            xcart      0.0000000000E+00  0.0000000000E+00  0.0000000000E+00
                       3.6302500000E+00  3.6302500000E+00  3.6302500000E+00
                       3.6302500000E+00  0.0000000000E+00  0.0000000000E+00
                       0.0000000000E+00  3.6302500000E+00  0.0000000000E+00
                       0.0000000000E+00  0.0000000000E+00  3.6302500000E+00
             xred      0.0000000000E+00  0.0000000000E+00  0.0000000000E+00
                       5.0000000000E-01  5.0000000000E-01  5.0000000000E-01
                       5.0000000000E-01  0.0000000000E+00  0.0000000000E+00
                       0.0000000000E+00  5.0000000000E-01  0.0000000000E+00
                       0.0000000000E+00  0.0000000000E+00  5.0000000000E-01
            znucl       23.00000   38.00000    8.00000

================================================================================

 chkinp: Checking input parameters for consistency, jdtset=   1.

 chkinp: Checking input parameters for consistency, jdtset=   2.

 chkinp: Checking input parameters for consistency, jdtset=   3.

================================================================================
== DATASET  1 ==================================================================
-   nproc =    1

 Exchange-correlation functional for the present dataset will be:
  LDA: Perdew-Wang 92 LSD fit to Ceperley-Alder data - ixc=7
 Citation for XC functional:
  J.P.Perdew and Y.Wang, PRB 45, 13244 (1992)

 Real(R)+Recip(G) space primitive vectors, cartesian coordinates (Bohr,Bohr^-1):
 R(1)=  7.2605000  0.0000000  0.0000000  G(1)=  0.1377316  0.0000000  0.0000000
 R(2)=  0.0000000  7.2605000  0.0000000  G(2)=  0.0000000  0.1377316  0.0000000
 R(3)=  0.0000000  0.0000000  7.2605000  G(3)=  0.0000000  0.0000000  0.1377316
 Unit cell volume ucvol=  3.8273624E+02 bohr^3
 Angles (23,13,12)=  9.00000000E+01  9.00000000E+01  9.00000000E+01 degrees

 Coarse grid specifications (used for wave-functions):

 getcut: wavevector=  0.0000  0.0000  0.0000  ngfft=  15  15  15
         ecut(hartree)=      4.000   => boxcut(ratio)=   2.14174

 Fine grid specifications (used for densities):

 getcut: wavevector=  0.0000  0.0000  0.0000  ngfft=  16  16  16
         ecut(hartree)=      5.000   => boxcut(ratio)=   2.18929

--- Pseudopotential description ------------------------------------------------
- pspini: atom type   1  psp file is /home/gonze/ABINIT/ABINITv7.9.3/trunk/7.9.3-private/tests/Psps_for_tests/23v.paw
- pspatm: opening atomic psp file    /home/gonze/ABINIT/ABINITv7.9.3/trunk/7.9.3-private/tests/Psps_for_tests/23v.paw
- Paw atomic data for element V - Generated by AtomPAW + AtomPAW2Abinit v3.2.0
- 23.00000  13.00000  20070917                znucl, zion, pspdat
    7    7    2    0      1505   0.00000      pspcod,pspxc,lmax,lloc,mmax,r2well
 Pseudopotential format is: paw3
 basis_size (lnmax)=  8 (lmn_size= 22), orbitals=   0   0   0   1   1   1   2   2
 Spheres core radius: rc_sph= 2.35000000
 3 radial meshes are used:
  - mesh 1: r(i)=AA*[exp(BB*(i-1))-1], size=1505 , AA= 0.26380E-03 BB= 0.60673E-02
  - mesh 2: r(i)=AA*[exp(BB*(i-1))-1], size=1500 , AA= 0.26380E-03 BB= 0.60673E-02
  - mesh 3: r(i)=AA*[exp(BB*(i-1))-1], size=1738 , AA= 0.26380E-03 BB= 0.60673E-02
 Shapefunction is SIN type: shapef(r)=[sin(pi*r/rshp)/(pi*r/rshp)]**2
 Radius for shape functions =  2.00701120
 Radial grid used for partial waves is grid 1
 Radial grid used for projectors is grid  2
 Radial grid used for (t)core density is grid 1
 Radial grid used for Vloc is grid 3
 Compensation charge density is taken into account in XC energy/potential
 pspatm: atomic psp has been read  and splines computed

- pspini: atom type   2  psp file is /home/gonze/ABINIT/ABINITv7.9.3/trunk/7.9.3-private/tests/Psps_for_tests/38sr.paw
- pspatm: opening atomic psp file    /home/gonze/ABINIT/ABINITv7.9.3/trunk/7.9.3-private/tests/Psps_for_tests/38sr.paw
- Paw atomic data for element Sr - Generated by AtomPAW + AtomPAW2Abinit v3.2.0
- 38.00000  10.00000  20070917                znucl, zion, pspdat
    7    7    2    0      1068   0.00000      pspcod,pspxc,lmax,lloc,mmax,r2well
 Pseudopotential format is: paw3
 basis_size (lnmax)=  6 (lmn_size= 18), orbitals=   0   0   1   1   2   2
 Spheres core radius: rc_sph= 1.92519986
 4 radial meshes are used:
  - mesh 1: r(i)=AA*[exp(BB*(i-1))-1], size=1068 , AA= 0.22443E-03 BB= 0.85283E-02
  - mesh 2: r(i)=AA*[exp(BB*(i-1))-1], size=1063 , AA= 0.22443E-03 BB= 0.85283E-02
  - mesh 3: r(i)=AA*[exp(BB*(i-1))-1], size=1134 , AA= 0.22443E-03 BB= 0.85283E-02
  - mesh 4: r(i)=AA*[exp(BB*(i-1))-1], size=1256 , AA= 0.22443E-03 BB= 0.85283E-02
 Shapefunction is SIN type: shapef(r)=[sin(pi*r/rshp)/(pi*r/rshp)]**2
 Radius for shape functions =  1.81361893
 Radial grid used for partial waves is grid 1
 Radial grid used for projectors is grid  2
 Radial grid used for (t)core density is grid 3
 Radial grid used for Vloc is grid 4
 Compensation charge density is taken into account in XC energy/potential
 pspatm: atomic psp has been read  and splines computed

- pspini: atom type   3  psp file is /home/gonze/ABINIT/ABINITv7.9.3/trunk/7.9.3-private/tests/Psps_for_tests/8o.paw
- pspatm: opening atomic psp file    /home/gonze/ABINIT/ABINITv7.9.3/trunk/7.9.3-private/tests/Psps_for_tests/8o.paw
- Paw atomic data for element O - Generated by AtomPAW (N. Holzwarth)
-  8.00000   6.00000  20040423                znucl, zion, pspdat
    7    7    1    0       350   0.00000      pspcod,pspxc,lmax,lloc,mmax,r2well
 Pseudopotential format is: paw2
 basis_size (lnmax)=  4 (lmn_size=  8), orbitals=   0   0   1   1
 Spheres core radius: rc_sph= 1.41000000
 2 radial meshes are used:
  - mesh 1: r(i)=AA*exp(BB*(i-2)), size= 350 , AA= 0.72362E-05 BB= 0.35000E-01
  - mesh 2: r(i)=step*(i-1), size= 566 , step= 0.25000E-02
 Shapefunction is SIN type: shapef(r)=[sin(pi*r/rshp)/(pi*r/rshp)]**2
 Radius for shape functions = sphere core radius
 Radial grid used for partial waves is grid 1
 Radial grid used for projectors is grid  2
 Radial grid used for (t)core density is grid 1
 Radial grid used for Vloc is grid 1
 Compensation charge density is taken into account in XC energy/potential
 pspatm: atomic psp has been read  and splines computed

   2.50191820E+03                                ecore*ucvol(ha*bohr**3)
--------------------------------------------------------------------------------

P newkpt: treating     27 bands with npw=     147 for ikpt=   1 by node    0
P newkpt: treating     27 bands with npw=     150 for ikpt=   2 by node    0
P newkpt: treating     27 bands with npw=     152 for ikpt=   3 by node    0
P newkpt: treating     27 bands with npw=     136 for ikpt=   4 by node    0

_setup2: Arith. and geom. avg. npw (full set) are     148.625     148.536


 ******************************************
 LDA+U Method used: FLL
 ******************************************

================================================================================

     iter   Etot(hartree)      deltaE(h)  residm     nres2
 ETOT  1  -144.27702808057    -1.443E+02 1.415E+00 2.560E+01
 ETOT  2  -143.84931791142     4.277E-01 6.939E-03 2.071E+00
 ETOT  3  -143.72869327940     1.206E-01 3.778E-04 1.835E-01
 ETOT  4  -143.71580465275     1.289E-02 4.444E-03 2.229E-03
 ETOT  5  -143.71566278904     1.419E-04 5.321E-05 1.155E-04
 ETOT  6  -143.71565962581     3.163E-06 3.057E-06 2.762E-06
 ETOT  7  -143.71565951245     1.134E-07 2.294E-07 1.000E-07
 ETOT  8  -143.71565950629     6.163E-09 1.898E-08 3.016E-09
 ETOT  9  -143.71565950640    -1.133E-10 1.587E-09 1.316E-10
 ETOT 10  -143.71565950640     2.444E-12 1.331E-10 3.538E-12
 ETOT 11  -143.71565950640     4.547E-13 1.116E-11 9.287E-14
 ETOT 12  -143.71565950640     1.421E-13 1.833E-12 9.536E-15
 ETOT 13  -143.71565950640     1.137E-13 2.979E-13 4.650E-16

 At SCF step   13       nres2   =  4.65E-16 < tolvrs=  1.00E-15 =>converged.

 Cartesian components of stress tensor (hartree/bohr^3)
  sigma(1 1)=  2.81023902E-02  sigma(3 2)=  0.00000000E+00
  sigma(2 2)=  2.81023902E-02  sigma(3 1)=  0.00000000E+00
  sigma(3 3)=  2.81023902E-02  sigma(2 1)=  0.00000000E+00


 PAW TEST:
 ==== Compensation charge inside spheres ============
 The following values must be close to each other ...
 Compensation charge over spherical meshes =      4.289884203238117
 Compensation charge over fine fft grid    =      4.286717781722016

 ==== Results concerning PAW augmentation regions ====

 Total pseudopotential strength Dij (hartree):
 Atom #  1
  -1.82971   0.43488  -2.53778   0.00000   0.00000   0.00000   0.00000   0.00000   0.00000   0.00000   0.00000   0.00000 ...
   0.43488   0.15608  -1.44717   0.00000   0.00000   0.00000   0.00000   0.00000   0.00000   0.00000   0.00000   0.00000 ...
  -2.53778  -1.44717  15.42130   0.00000   0.00000   0.00000   0.00000   0.00000   0.00000   0.00000   0.00000   0.00000 ...
   0.00000   0.00000   0.00000  -1.46914   0.00000   0.00000   0.15193   0.00000   0.00000  -0.13362   0.00000   0.00000 ...
   0.00000   0.00000   0.00000   0.00000  -1.46914   0.00000   0.00000   0.15193   0.00000   0.00000  -0.13362   0.00000 ...
   0.00000   0.00000   0.00000   0.00000   0.00000  -1.46914   0.00000   0.00000   0.15193   0.00000   0.00000  -0.13362 ...
   0.00000   0.00000   0.00000   0.15193   0.00000   0.00000   0.02851   0.00000   0.00000  -0.13351   0.00000   0.00000 ...
   0.00000   0.00000   0.00000   0.00000   0.15193   0.00000   0.00000   0.02851   0.00000   0.00000  -0.13351   0.00000 ...
   0.00000   0.00000   0.00000   0.00000   0.00000   0.15193   0.00000   0.00000   0.02851   0.00000   0.00000  -0.13351 ...
   0.00000   0.00000   0.00000  -0.13362   0.00000   0.00000  -0.13351   0.00000   0.00000   2.10571   0.00000   0.00000 ...
   0.00000   0.00000   0.00000   0.00000  -0.13362   0.00000   0.00000  -0.13351   0.00000   0.00000   2.10571   0.00000 ...
   0.00000   0.00000   0.00000   0.00000   0.00000  -0.13362   0.00000   0.00000  -0.13351   0.00000   0.00000   2.10571 ...
   ...  only 12  components have been written...
 Atom #  5
   0.10993   0.03971   0.00000   0.00000   0.00000   0.00000   0.00000   0.00000
   0.03971   0.05170   0.00000   0.00000   0.00000   0.00000   0.00000   0.00000
   0.00000   0.00000  -0.81320   0.00000   0.00000   0.07675   0.00000   0.00000
   0.00000   0.00000   0.00000  -0.81458   0.00000   0.00000   0.07577   0.00000
   0.00000   0.00000   0.00000   0.00000  -0.81320   0.00000   0.00000   0.07675
   0.00000   0.00000   0.07675   0.00000   0.00000  -1.26351   0.00000   0.00000
   0.00000   0.00000   0.00000   0.07577   0.00000   0.00000  -1.26471   0.00000
   0.00000   0.00000   0.00000   0.00000   0.07675   0.00000   0.00000  -1.26351


 Augmentation waves occupancies Rhoij:
 Atom #  1
   1.99000  -0.10694  -0.00120   0.00000   0.00000   0.00000   0.00000   0.00000   0.00000   0.00000   0.00000   0.00000 ...
  -0.10694   2.51089   0.02728   0.00000   0.00000   0.00000   0.00000   0.00000   0.00000   0.00000   0.00000   0.00000 ...
  -0.00120   0.02728   0.00064   0.00000   0.00000   0.00000   0.00000   0.00000   0.00000   0.00000   0.00000   0.00000 ...
   0.00000   0.00000   0.00000   1.97991   0.00000   0.00000   0.16892   0.00000   0.00000  -0.12925   0.00000   0.00000 ...
   0.00000   0.00000   0.00000   0.00000   1.97991   0.00000   0.00000   0.16892   0.00000   0.00000  -0.12925   0.00000 ...
   0.00000   0.00000   0.00000   0.00000   0.00000   1.97991   0.00000   0.00000   0.16892   0.00000   0.00000  -0.12925 ...
   0.00000   0.00000   0.00000   0.16892   0.00000   0.00000   3.84626   0.00000   0.00000   0.02091   0.00000   0.00000 ...
   0.00000   0.00000   0.00000   0.00000   0.16892   0.00000   0.00000   3.84626   0.00000   0.00000   0.02091   0.00000 ...
   0.00000   0.00000   0.00000   0.00000   0.00000   0.16892   0.00000   0.00000   3.84626   0.00000   0.00000   0.02091 ...
   0.00000   0.00000   0.00000  -0.12925   0.00000   0.00000   0.02091   0.00000   0.00000   0.01047   0.00000   0.00000 ...
   0.00000   0.00000   0.00000   0.00000  -0.12925   0.00000   0.00000   0.02091   0.00000   0.00000   0.01047   0.00000 ...
   0.00000   0.00000   0.00000   0.00000   0.00000  -0.12925   0.00000   0.00000   0.02091   0.00000   0.00000   0.01047 ...
   ...  only 12  components have been written...
 Atom #  5
   1.68323   0.10827   0.00000   0.00000   0.00000   0.00000   0.00000   0.00000
   0.10827   0.00765   0.00000   0.00000   0.00000   0.00000   0.00000   0.00000
   0.00000   0.00000   0.51307   0.00000   0.00000   0.13325   0.00000   0.00000
   0.00000   0.00000   0.00000   0.54213   0.00000   0.00000   0.14111   0.00000
   0.00000   0.00000   0.00000   0.00000   0.51307   0.00000   0.00000   0.13325
   0.00000   0.00000   0.13325   0.00000   0.00000   0.03469   0.00000   0.00000
   0.00000   0.00000   0.00000   0.14111   0.00000   0.00000   0.03693   0.00000
   0.00000   0.00000   0.00000   0.00000   0.13325   0.00000   0.00000   0.03469

 "PAW+U" part of augmentation waves occupancies Rhoij:
 Atom #  1 - L=2 ONLY
   0.17981   0.00000   0.00000   0.00000   0.00000   0.11746   0.00000   0.00000   0.00000   0.00000
   0.00000   0.17981   0.00000   0.00000   0.00000   0.00000   0.11746   0.00000   0.00000   0.00000
   0.00000   0.00000   0.61073   0.00000   0.00000   0.00000   0.00000   0.17778   0.00000   0.00000
   0.00000   0.00000   0.00000   0.17981   0.00000   0.00000   0.00000   0.00000   0.11746   0.00000
   0.00000   0.00000   0.00000   0.00000   0.61073   0.00000   0.00000   0.00000   0.00000   0.17778
   0.11746   0.00000   0.00000   0.00000   0.00000   0.08793   0.00000   0.00000   0.00000   0.00000
   0.00000   0.11746   0.00000   0.00000   0.00000   0.00000   0.08793   0.00000   0.00000   0.00000
   0.00000   0.00000   0.17778   0.00000   0.00000   0.00000   0.00000   0.27708   0.00000   0.00000
   0.00000   0.00000   0.00000   0.11746   0.00000   0.00000   0.00000   0.00000   0.08793   0.00000
   0.00000   0.00000   0.00000   0.00000   0.17778   0.00000   0.00000   0.00000   0.00000   0.27708

 ---------- LDA+U DATA --------------------------------------------------- 

 ====== For Atom     1, occupations for correlated orbitals. lpawu =   2


 == Occupation matrix for correlated orbitals:

 Up component only...
     0.05331    0.00000    0.00000    0.00000    0.00000
     0.00000    0.05331    0.00000    0.00000    0.00000
     0.00000    0.00000    0.21006    0.00000    0.00000
     0.00000    0.00000    0.00000    0.05331    0.00000
     0.00000    0.00000    0.00000    0.00000    0.21006



================================================================================

 ----iterations are completed or convergence reached----

 Mean square residual over all n,k,spin=   3.6610E-15; max=  2.9791E-13
   0.0000  0.0000  0.0000    1  1.12651E-18 kpt; spin; max resid(k); each band:
  5.87E-23 1.06E-22 1.06E-22 1.06E-22 3.12E-22 2.70E-25 2.70E-25 1.40E-22
  3.05E-23 3.05E-23 3.05E-23 2.73E-22 2.73E-22 2.73E-22 4.43E-28 4.44E-28
  4.50E-28 7.36E-22 4.31E-22 5.14E-22 1.98E-22 1.96E-22 2.20E-21 2.34E-20
  1.13E-18 4.83E-21 4.94E-21
   0.5000  0.0000  0.0000    1  2.97910E-13 kpt; spin; max resid(k); each band:
  1.56E-22 6.77E-23 6.77E-23 2.03E-21 4.16E-22 6.61E-24 1.16E-22 1.44E-25
  1.26E-23 1.26E-23 8.14E-23 3.33E-23 3.33E-23 4.47E-23 1.42E-22 1.19E-22
  1.19E-22 6.57E-25 6.57E-25 4.83E-28 4.06E-24 1.48E-26 1.12E-21 8.18E-22
  8.53E-23 1.88E-14 2.98E-13
   0.5000  0.5000  0.0000    1  8.13018E-22 kpt; spin; max resid(k); each band:
  2.02E-22 8.13E-22 8.13E-22 2.24E-22 4.56E-23 1.92E-23 7.67E-24 7.67E-24
  4.23E-23 4.23E-23 5.23E-27 1.94E-22 3.67E-22 5.53E-23 4.11E-23 4.11E-23
  2.97E-22 2.97E-22 3.90E-26 2.72E-30 5.66E-23 2.30E-22 4.70E-23 4.70E-23
  1.51E-22 2.60E-22 7.50E-23
   0.5000  0.5000  0.5000    1  7.87010E-14 kpt; spin; max resid(k); each band:
  5.67E-22 1.23E-22 1.23E-22 1.23E-22 4.13E-24 7.85E-24 7.85E-24 7.85E-24
  4.02E-22 4.02E-22 4.02E-22 4.47E-24 1.65E-22 1.65E-22 1.65E-22 1.17E-26
  1.18E-26 2.58E-27 2.59E-27 2.59E-27 8.84E-24 8.84E-24 8.84E-24 2.01E-24
  1.38E-24 7.81E-22 7.87E-14
 reduced coordinates (array xred) for    5 atoms
       0.000000000000      0.000000000000      0.000000000000
       0.500000000000      0.500000000000      0.500000000000
       0.500000000000      0.000000000000      0.000000000000
       0.000000000000      0.500000000000      0.000000000000
       0.000000000000      0.000000000000      0.500000000000
 rms dE/dt=  0.0000E+00; max dE/dt=  0.0000E+00; dE/dt below (all hartree)
    1       0.000000000000      0.000000000000      0.000000000000
    2       0.000000000000      0.000000000000      0.000000000000
    3       0.000000000000      0.000000000000      0.000000000000
    4       0.000000000000      0.000000000000      0.000000000000
    5       0.000000000000      0.000000000000      0.000000000000

 cartesian coordinates (angstrom) at end:
    1      0.00000000000000     0.00000000000000     0.00000000000000
    2      1.92104556148385     1.92104556148385     1.92104556148385
    3      1.92104556148385     0.00000000000000     0.00000000000000
    4      0.00000000000000     1.92104556148385     0.00000000000000
    5      0.00000000000000     0.00000000000000     1.92104556148385

 cartesian forces (hartree/bohr) at end:
    1     -0.00000000000000    -0.00000000000000    -0.00000000000000
    2     -0.00000000000000    -0.00000000000000    -0.00000000000000
    3     -0.00000000000000    -0.00000000000000    -0.00000000000000
    4     -0.00000000000000    -0.00000000000000    -0.00000000000000
    5     -0.00000000000000    -0.00000000000000    -0.00000000000000
 frms,max,avg= 0.0000000E+00 0.0000000E+00   0.000E+00  0.000E+00  0.000E+00 h/b

 cartesian forces (eV/Angstrom) at end:
    1     -0.00000000000000    -0.00000000000000    -0.00000000000000
    2     -0.00000000000000    -0.00000000000000    -0.00000000000000
    3     -0.00000000000000    -0.00000000000000    -0.00000000000000
    4     -0.00000000000000    -0.00000000000000    -0.00000000000000
    5     -0.00000000000000    -0.00000000000000    -0.00000000000000
 frms,max,avg= 0.0000000E+00 0.0000000E+00   0.000E+00  0.000E+00  0.000E+00 e/A
 length scales=  7.260500000000  7.260500000000  7.260500000000 bohr
              =  3.842091122968  3.842091122968  3.842091122968 angstroms
 prteigrs : about to open file t23o_DS1_EIG
 Fermi (or HOMO) energy (hartree) =   0.44091   Average Vxc (hartree)=  -0.46325
 Eigenvalues (hartree) for nkpt=   4  k points:
 kpt#   1, nband= 27, wtk=  0.12500, kpt=  0.0000  0.0000  0.0000 (reduced coord)
  -2.59394  -1.47015  -1.47015  -1.47015  -0.94690  -0.64872  -0.64872  -0.63916
  -0.19237  -0.19237  -0.19237   0.11796   0.11796   0.11796   0.23716   0.23716
   0.23716   0.41531   0.41531   0.41531   0.43961   0.43961   0.47529   0.51944
   0.51944   0.53987   0.53987
      occupation numbers for kpt#   1
   2.00000   2.00000   2.00000   2.00000   2.00000   2.00000   2.00000   2.00000
   2.00000   2.00000   2.00000   2.00000   2.00000   2.00000   2.00000   2.00000
   2.00000   1.99812   1.99812   1.99812   1.17513   1.17513   0.00017   0.00000
   0.00000   0.00000   0.00000
 kpt#   2, nband= 27, wtk=  0.37500, kpt=  0.5000  0.0000  0.0000 (reduced coord)
  -2.59413  -1.49241  -1.49241  -1.45351  -0.94571  -0.68292  -0.63775  -0.60737
  -0.18743  -0.18743  -0.18534   0.14010   0.14010   0.16877   0.18133   0.21948
   0.21948   0.23732   0.23732   0.25719   0.43290   0.45233   0.51082   0.62378
   0.62966   0.64424   0.64424
      occupation numbers for kpt#   2
   2.00000   2.00000   2.00000   2.00000   2.00000   2.00000   2.00000   2.00000
   2.00000   2.00000   2.00000   2.00000   2.00000   2.00000   2.00000   2.00000
   2.00000   2.00000   2.00000   2.00000   1.79672   0.08564   0.00000   0.00000
   0.00000   0.00000   0.00000
 kpt#   3, nband= 27, wtk=  0.37500, kpt=  0.5000  0.5000  0.0000 (reduced coord)
  -2.59633  -1.50235  -1.50235  -1.47849  -0.94873  -0.64153  -0.63989  -0.63989
  -0.20256  -0.20256  -0.17891   0.07543   0.13377   0.16200   0.18883   0.18883
   0.24831   0.24831   0.33143   0.33843   0.46517   0.49942   0.51737   0.51737
   0.54175   0.64707   0.67635
      occupation numbers for kpt#   3
   2.00000   2.00000   2.00000   2.00000   2.00000   2.00000   2.00000   2.00000
   2.00000   2.00000   2.00000   2.00000   2.00000   2.00000   2.00000   2.00000
   2.00000   2.00000   2.00000   2.00000   0.00271   0.00000   0.00000   0.00000
   0.00000   0.00000   0.00000
 kpt#   4, nband= 27, wtk=  0.12500, kpt=  0.5000  0.5000  0.5000 (reduced coord)
  -2.59042  -1.42616  -1.42616  -1.42616  -0.94217  -0.62509  -0.62509  -0.62509
  -0.19220  -0.19220  -0.19220   0.02214   0.20599   0.20599   0.20599   0.36257
   0.36257   0.38803   0.38803   0.38803   0.54043   0.54043   0.54043   0.65970
   0.65970   0.67203   0.74000
      occupation numbers for kpt#   4
   2.00000   2.00000   2.00000   2.00000   2.00000   2.00000   2.00000   2.00000
   2.00000   2.00000   2.00000   2.00000   2.00000   2.00000   2.00000   2.00000
   2.00000   2.00000   2.00000   2.00000   0.00000   0.00000   0.00000   0.00000
   0.00000   0.00000   0.00000
 Total charge density [el/Bohr^3]
,     Maximum=    1.2882E+00  at reduced coord.    0.0000    0.0000    0.0000
,Next maximum=    1.1356E+00  at reduced coord.    0.0000    0.0000    0.9375
,     Minimum=    1.1088E-02  at reduced coord.    0.4375    0.4375    0.0000
,Next minimum=    1.1088E-02  at reduced coord.    0.5625    0.4375    0.0000
,  Integrated=    4.0997E+01

--------------------------------------------------------------------------------
 Components of total free energy (in Hartree) :

    Kinetic energy  =  3.86537202042321E+01
    Hartree energy  =  2.25448310575349E+01
    XC energy       = -2.07863133049842E+01
    Ewald energy    = -1.14220316979058E+02
    PspCore energy  =  6.53692522600458E+00
    Loc. psp. energy= -7.97195908105292E+01
    Spherical terms =  3.27777355272678E+00
    >>>>> Internal E= -1.43712971054073E+02

    -kT*entropy     = -2.68844550120830E-03
    >>>>>>>>> Etotal= -1.43715659499574E+02

 "Double-counting" decomposition of free energy:
    Band energy     = -1.64989589981812E+01
    Ewald energy    = -1.14220316979058E+02
    PspCore energy  =  6.53692522600458E+00
    Dble-C XC-energy= -1.61544670098388E+01
    Spherical terms = -3.37615329982383E+00
    >>>>> Internal E= -1.43712971060897E+02

    -kT*entropy     = -2.68844550120830E-03
    >>>> Etotal (DC)= -1.43715659506398E+02

  >Total energy in eV           = -3.91070197733596E+03
  >Total DC energy in eV        = -3.91070197752165E+03
--------------------------------------------------------------------------------

 Cartesian components of stress tensor (hartree/bohr^3)
  sigma(1 1)=  2.81023902E-02  sigma(3 2)=  0.00000000E+00
  sigma(2 2)=  2.81023902E-02  sigma(3 1)=  0.00000000E+00
  sigma(3 3)=  2.81023902E-02  sigma(2 1)=  0.00000000E+00

-Cartesian components of stress tensor (GPa)         [Pressure= -8.2680E+02 GPa]
- sigma(1 1)=  8.26800726E+02  sigma(3 2)=  0.00000000E+00
- sigma(2 2)=  8.26800726E+02  sigma(3 1)=  0.00000000E+00
- sigma(3 3)=  8.26800726E+02  sigma(2 1)=  0.00000000E+00

================================================================================
== DATASET  2 ==================================================================
-   nproc =    1

 mkfilename : getden/=0, take file _DEN from output of DATASET   1.

 Exchange-correlation functional for the present dataset will be:
  LDA: Perdew-Wang 92 LSD fit to Ceperley-Alder data - ixc=7
 Citation for XC functional:
  J.P.Perdew and Y.Wang, PRB 45, 13244 (1992)

 Real(R)+Recip(G) space primitive vectors, cartesian coordinates (Bohr,Bohr^-1):
 R(1)=  7.2605000  0.0000000  0.0000000  G(1)=  0.1377316  0.0000000  0.0000000
 R(2)=  0.0000000  7.2605000  0.0000000  G(2)=  0.0000000  0.1377316  0.0000000
 R(3)=  0.0000000  0.0000000  7.2605000  G(3)=  0.0000000  0.0000000  0.1377316
 Unit cell volume ucvol=  3.8273624E+02 bohr^3
 Angles (23,13,12)=  9.00000000E+01  9.00000000E+01  9.00000000E+01 degrees

 Coarse grid specifications (used for wave-functions):

 getcut: wavevector=  0.0000  0.0000  0.0000  ngfft=  15  15  15
         ecut(hartree)=      4.000   => boxcut(ratio)=   2.14174

 Fine grid specifications (used for densities):

 getcut: wavevector=  0.0000  0.0000  0.0000  ngfft=  16  16  16
         ecut(hartree)=      5.000   => boxcut(ratio)=   2.18929
--------------------------------------------------------------------------------

P newkpt: treating     27 bands with npw=     147 for ikpt=   1 by node    0
P newkpt: treating     27 bands with npw=     150 for ikpt=   2 by node    0
P newkpt: treating     27 bands with npw=     150 for ikpt=   3 by node    0
P newkpt: treating     27 bands with npw=     152 for ikpt=   4 by node    0
P newkpt: treating     27 bands with npw=     150 for ikpt=   5 by node    0
P newkpt: treating     27 bands with npw=     152 for ikpt=   6 by node    0
P newkpt: treating     27 bands with npw=     152 for ikpt=   7 by node    0
P newkpt: treating     27 bands with npw=     136 for ikpt=   8 by node    0

_setup2: Arith. and geom. avg. npw (full set) are     148.625     148.536


 ******************************************
 LDA+U Method used: FLL
 ******************************************

================================================================================

     iter   Etot(hartree)      deltaE(h)  residm     nres2
 ETOT  1  -143.71565892057    -1.437E+02 5.663E-04 6.195E-08
 ETOT  2  -143.71565950723    -5.867E-07 4.400E-05 2.836E-08
 ETOT  3  -143.71565950665     5.805E-10 3.562E-07 9.968E-09
 ETOT  4  -143.71565950652     1.332E-10 7.125E-09 4.911E-09
 ETOT  5  -143.71565950645     6.153E-11 1.178E-10 2.531E-09
 ETOT  6  -143.71565950643     2.669E-11 4.493E-12 1.490E-09
 ETOT  7  -143.71565950641     1.253E-11 3.421E-13 1.009E-09
 ETOT  8  -143.71565950641     6.679E-12 1.590E-12 7.404E-10
 ETOT  9  -143.71565950640     5.372E-12 1.159E-13 5.417E-10
 ETOT 10  -143.71565950639     1.384E-11 7.297E-15 1.242E-16

 At SCF step   10       nres2   =  1.24E-16 < tolvrs=  1.00E-15 =>converged.

 Cartesian components of stress tensor (hartree/bohr^3)
  sigma(1 1)=  2.81023902E-02  sigma(3 2)= -9.62188284E-14
  sigma(2 2)=  2.81023902E-02  sigma(3 1)= -4.35643723E-13
  sigma(3 3)=  2.81023902E-02  sigma(2 1)= -1.11755249E-13


 PAW TEST:
 ==== Compensation charge inside spheres ============
 The following values must be close to each other ...
 Compensation charge over spherical meshes =      4.289884206673108
 Compensation charge over fine fft grid    =      4.286717782723603

 ==== Results concerning PAW augmentation regions ====

 Total pseudopotential strength Dij (hartree):
 Atom #  1
  -1.82971   0.43488  -2.53778   0.00000   0.00000   0.00000   0.00000   0.00000   0.00000   0.00000   0.00000   0.00000 ...
   0.43488   0.15608  -1.44717   0.00000   0.00000   0.00000   0.00000   0.00000   0.00000   0.00000   0.00000   0.00000 ...
  -2.53778  -1.44717  15.42130   0.00000   0.00000   0.00000   0.00000   0.00000   0.00000   0.00000   0.00000   0.00000 ...
   0.00000   0.00000   0.00000  -1.46914   0.00000   0.00000   0.15193   0.00000   0.00000  -0.13362   0.00000   0.00000 ...
   0.00000   0.00000   0.00000   0.00000  -1.46914   0.00000   0.00000   0.15193   0.00000   0.00000  -0.13362   0.00000 ...
   0.00000   0.00000   0.00000   0.00000   0.00000  -1.46914   0.00000   0.00000   0.15193   0.00000   0.00000  -0.13362 ...
   0.00000   0.00000   0.00000   0.15193   0.00000   0.00000   0.02851   0.00000   0.00000  -0.13351   0.00000   0.00000 ...
   0.00000   0.00000   0.00000   0.00000   0.15193   0.00000   0.00000   0.02851   0.00000   0.00000  -0.13351   0.00000 ...
   0.00000   0.00000   0.00000   0.00000   0.00000   0.15193   0.00000   0.00000   0.02851   0.00000   0.00000  -0.13351 ...
   0.00000   0.00000   0.00000  -0.13362   0.00000   0.00000  -0.13351   0.00000   0.00000   2.10571   0.00000   0.00000 ...
   0.00000   0.00000   0.00000   0.00000  -0.13362   0.00000   0.00000  -0.13351   0.00000   0.00000   2.10571   0.00000 ...
   0.00000   0.00000   0.00000   0.00000   0.00000  -0.13362   0.00000   0.00000  -0.13351   0.00000   0.00000   2.10571 ...
   ...  only 12  components have been written...
 Atom #  5
   0.10993   0.03971   0.00000   0.00000   0.00000   0.00000   0.00000   0.00000
   0.03971   0.05170   0.00000   0.00000   0.00000   0.00000   0.00000   0.00000
   0.00000   0.00000  -0.81320   0.00000   0.00000   0.07675   0.00000   0.00000
   0.00000   0.00000   0.00000  -0.81458   0.00000   0.00000   0.07577   0.00000
   0.00000   0.00000   0.00000   0.00000  -0.81320   0.00000   0.00000   0.07675
   0.00000   0.00000   0.07675   0.00000   0.00000  -1.26351   0.00000   0.00000
   0.00000   0.00000   0.00000   0.07577   0.00000   0.00000  -1.26471   0.00000
   0.00000   0.00000   0.00000   0.00000   0.07675   0.00000   0.00000  -1.26351


 Augmentation waves occupancies Rhoij:
 Atom #  1
   1.99000  -0.10694  -0.00120   0.00000   0.00000   0.00000   0.00000   0.00000   0.00000   0.00000   0.00000   0.00000 ...
  -0.10694   2.51089   0.02728   0.00000   0.00000   0.00000   0.00000   0.00000   0.00000   0.00000   0.00000   0.00000 ...
  -0.00120   0.02728   0.00064   0.00000   0.00000   0.00000   0.00000   0.00000   0.00000   0.00000   0.00000   0.00000 ...
   0.00000   0.00000   0.00000   1.97991   0.00000   0.00000   0.16892   0.00000   0.00000  -0.12925   0.00000   0.00000 ...
   0.00000   0.00000   0.00000   0.00000   1.97991   0.00000   0.00000   0.16892   0.00000   0.00000  -0.12925   0.00000 ...
   0.00000   0.00000   0.00000   0.00000   0.00000   1.97991   0.00000   0.00000   0.16892   0.00000   0.00000  -0.12925 ...
   0.00000   0.00000   0.00000   0.16892   0.00000   0.00000   3.84626   0.00000   0.00000   0.02091   0.00000   0.00000 ...
   0.00000   0.00000   0.00000   0.00000   0.16892   0.00000   0.00000   3.84626   0.00000   0.00000   0.02091   0.00000 ...
   0.00000   0.00000   0.00000   0.00000   0.00000   0.16892   0.00000   0.00000   3.84626   0.00000   0.00000   0.02091 ...
   0.00000   0.00000   0.00000  -0.12925   0.00000   0.00000   0.02091   0.00000   0.00000   0.01047   0.00000   0.00000 ...
   0.00000   0.00000   0.00000   0.00000  -0.12925   0.00000   0.00000   0.02091   0.00000   0.00000   0.01047   0.00000 ...
   0.00000   0.00000   0.00000   0.00000   0.00000  -0.12925   0.00000   0.00000   0.02091   0.00000   0.00000   0.01047 ...
   ...  only 12  components have been written...
 Atom #  5
   1.68323   0.10827   0.00000   0.00000   0.00000   0.00000   0.00000   0.00000
   0.10827   0.00765   0.00000   0.00000   0.00000   0.00000   0.00000   0.00000
   0.00000   0.00000   0.51307   0.00000   0.00000   0.13325   0.00000   0.00000
   0.00000   0.00000   0.00000   0.54213   0.00000   0.00000   0.14111   0.00000
   0.00000   0.00000   0.00000   0.00000   0.51307   0.00000   0.00000   0.13325
   0.00000   0.00000   0.13325   0.00000   0.00000   0.03469   0.00000   0.00000
   0.00000   0.00000   0.00000   0.14111   0.00000   0.00000   0.03693   0.00000
   0.00000   0.00000   0.00000   0.00000   0.13325   0.00000   0.00000   0.03469

 "PAW+U" part of augmentation waves occupancies Rhoij:
 Atom #  1 - L=2 ONLY
   0.17981   0.00000   0.00000   0.00000   0.00000   0.11746   0.00000   0.00000   0.00000   0.00000
   0.00000   0.17981   0.00000   0.00000   0.00000   0.00000   0.11746   0.00000   0.00000   0.00000
   0.00000   0.00000   0.61073   0.00000   0.00000   0.00000   0.00000   0.17778   0.00000   0.00000
   0.00000   0.00000   0.00000   0.17981   0.00000   0.00000   0.00000   0.00000   0.11746   0.00000
   0.00000   0.00000   0.00000   0.00000   0.61073   0.00000   0.00000   0.00000   0.00000   0.17778
   0.11746   0.00000   0.00000   0.00000   0.00000   0.08793   0.00000   0.00000   0.00000   0.00000
   0.00000   0.11746   0.00000   0.00000   0.00000   0.00000   0.08793   0.00000   0.00000   0.00000
   0.00000   0.00000   0.17778   0.00000   0.00000   0.00000   0.00000   0.27708   0.00000   0.00000
   0.00000   0.00000   0.00000   0.11746   0.00000   0.00000   0.00000   0.00000   0.08793   0.00000
   0.00000   0.00000   0.00000   0.00000   0.17778   0.00000   0.00000   0.00000   0.00000   0.27708

 ---------- LDA+U DATA --------------------------------------------------- 

 ====== For Atom     1, occupations for correlated orbitals. lpawu =   2


 == Occupation matrix for correlated orbitals:

 Up component only...
     0.05331    0.00000    0.00000    0.00000    0.00000
     0.00000    0.05331    0.00000    0.00000    0.00000
     0.00000    0.00000    0.21006    0.00000    0.00000
     0.00000    0.00000    0.00000    0.05331    0.00000
     0.00000    0.00000    0.00000    0.00000    0.21006



================================================================================

 ----iterations are completed or convergence reached----

 Mean square residual over all n,k,spin=   9.2388E-17; max=  7.2968E-15
   0.0000  0.0000  0.0000    1  1.04531E-17 kpt; spin; max resid(k); each band:
  1.77E-27 1.67E-29 1.58E-29 8.02E-30 4.80E-30 3.00E-30 2.02E-30 9.16E-30
  9.29E-31 7.18E-31 7.66E-31 6.49E-29 6.72E-30 1.42E-29 1.02E-28 3.08E-28
  4.44E-29 2.49E-23 2.27E-25 8.33E-26 9.52E-21 1.72E-21 2.41E-21 1.05E-17
  1.47E-18 2.23E-22 7.46E-23
   0.5000  0.0000  0.0000    1  3.11114E-15 kpt; spin; max resid(k); each band:
  3.62E-28 4.07E-30 9.00E-30 6.29E-30 5.47E-30 2.76E-30 1.36E-30 1.76E-30
  3.01E-30 5.68E-31 2.11E-30 2.23E-30 1.18E-30 1.28E-30 1.88E-30 5.84E-30
  2.53E-29 4.44E-29 5.90E-30 3.42E-30 1.15E-25 2.50E-24 6.68E-22 9.90E-20
  3.49E-20 3.11E-15 7.01E-17
   0.0000  0.5000  0.0000    1  5.82729E-15 kpt; spin; max resid(k); each band:
  1.56E-27 3.78E-30 4.94E-30 7.47E-30 3.47E-30 3.43E-30 1.16E-30 1.44E-30
  2.50E-29 7.98E-29 9.90E-30 9.89E-31 1.59E-30 1.16E-30 1.50E-30 7.58E-30
  2.75E-30 2.16E-29 1.54E-28 1.23E-30 1.05E-25 1.25E-24 4.11E-22 1.02E-19
  2.75E-20 5.83E-15 4.56E-16
   0.5000  0.5000  0.0000    1  5.82108E-22 kpt; spin; max resid(k); each band:
  5.37E-28 1.92E-29 6.38E-30 5.38E-30 5.12E-30 1.93E-30 1.63E-30 1.32E-30
  4.18E-30 2.52E-30 2.38E-30 1.02E-30 5.20E-29 7.21E-31 2.36E-30 1.13E-30
  2.80E-30 1.83E-30 1.02E-28 4.08E-29 3.07E-27 2.86E-24 2.74E-24 1.57E-24
  6.91E-26 1.76E-23 5.82E-22
   0.0000  0.0000  0.5000    1  7.29676E-15 kpt; spin; max resid(k); each band:
  1.22E-27 7.18E-30 7.90E-30 7.57E-29 1.35E-30 1.97E-30 2.51E-30 2.29E-30
  1.88E-30 1.00E-28 1.23E-30 6.06E-31 7.57E-31 9.84E-31 4.78E-30 9.82E-30
  2.28E-29 1.20E-29 3.62E-29 2.65E-30 2.39E-26 3.64E-25 1.62E-24 1.26E-20
  1.14E-19 7.30E-15 3.18E-15
   0.5000  0.0000  0.5000    1  2.50934E-22 kpt; spin; max resid(k); each band:
  4.23E-28 1.79E-29 1.52E-29 1.01E-29 3.34E-30 1.27E-30 2.99E-30 1.15E-30
  2.82E-30 1.95E-30 4.56E-30 1.42E-28 4.13E-30 3.40E-31 3.65E-30 1.42E-30
  1.52E-30 1.69E-30 1.15E-28 1.36E-28 4.84E-27 2.08E-24 1.35E-22 4.27E-26
  8.75E-23 1.14E-24 2.51E-22
   0.0000  0.5000  0.5000    1  8.49086E-22 kpt; spin; max resid(k); each band:
  9.70E-28 1.87E-29 8.28E-30 6.21E-30 3.86E-30 9.17E-31 1.50E-30 1.51E-30
  4.22E-30 8.49E-31 6.75E-30 1.14E-28 4.08E-30 9.57E-31 2.98E-30 4.84E-31
  3.42E-30 1.21E-30 1.61E-28 7.87E-29 1.38E-27 2.39E-25 3.91E-26 1.62E-24
  4.22E-23 4.94E-23 8.49E-22
   0.5000  0.5000  0.5000    1  1.51418E-19 kpt; spin; max resid(k); each band:
  2.14E-29 3.22E-29 6.80E-29 2.76E-29 4.46E-30 2.08E-30 1.27E-30 1.57E-30
  4.54E-30 3.12E-30 3.85E-30 1.42E-30 9.81E-30 5.37E-30 4.23E-31 8.41E-29
  1.80E-27 5.53E-28 6.94E-28 2.56E-29 3.99E-27 6.82E-27 1.33E-26 6.02E-23
  1.76E-23 4.28E-23 1.51E-19
 reduced coordinates (array xred) for    5 atoms
       0.000000000000      0.000000000000      0.000000000000
       0.500000000000      0.500000000000      0.500000000000
       0.500000000000      0.000000000000      0.000000000000
       0.000000000000      0.500000000000      0.000000000000
       0.000000000000      0.000000000000      0.500000000000
 rms dE/dt=  2.5325E-09; max dE/dt=  6.1479E-09; dE/dt below (all hartree)
    1      -0.000000000096     -0.000000005787     -0.000000001665
    2       0.000000000320      0.000000006148      0.000000000896
    3       0.000000000119     -0.000000002733     -0.000000000425
    4      -0.000000000128      0.000000003332      0.000000000589
    5      -0.000000000196     -0.000000001301      0.000000000609

 cartesian coordinates (angstrom) at end:
    1      0.00000000000000     0.00000000000000     0.00000000000000
    2      1.92104556148385     1.92104556148385     1.92104556148385
    3      1.92104556148385     0.00000000000000     0.00000000000000
    4      0.00000000000000     1.92104556148385     0.00000000000000
    5      0.00000000000000     0.00000000000000     1.92104556148385

 cartesian forces (hartree/bohr) at end:
    1      0.00000000001380     0.00000000078759     0.00000000022946
    2     -0.00000000004352    -0.00000000085615    -0.00000000012333
    3     -0.00000000001588     0.00000000036708     0.00000000005865
    4      0.00000000001809    -0.00000000046835    -0.00000000008101
    5      0.00000000002750     0.00000000016983    -0.00000000008377
 frms,max,avg= 3.4876361E-10 8.5615371E-10  -5.151E-13  9.396E-12 -1.378E-13 h/b

 cartesian forces (eV/Angstrom) at end:
    1      0.00000000070980     0.00000004049954     0.00000001179941
    2     -0.00000000223766    -0.00000004402519    -0.00000000634202
    3     -0.00000000081667     0.00000001887585     0.00000000301594
    4      0.00000000093039    -0.00000002408342    -0.00000000416595
    5      0.00000000141415     0.00000000873321    -0.00000000430737
 frms,max,avg= 1.7934144E-08 4.4025190E-08  -2.649E-11  4.832E-10 -7.085E-12 e/A
 length scales=  7.260500000000  7.260500000000  7.260500000000 bohr
              =  3.842091122968  3.842091122968  3.842091122968 angstroms
 prteigrs : about to open file t23o_DS2_EIG
 Fermi (or HOMO) energy (hartree) =   0.44091   Average Vxc (hartree)=  -0.46325
 Eigenvalues (hartree) for nkpt=   8  k points:
 kpt#   1, nband= 27, wtk=  0.12500, kpt=  0.0000  0.0000  0.0000 (reduced coord)
  -2.59394  -1.47015  -1.47015  -1.47015  -0.94690  -0.64872  -0.64872  -0.63916
  -0.19237  -0.19237  -0.19237   0.11796   0.11796   0.11796   0.23716   0.23716
   0.23716   0.41531   0.41531   0.41531   0.43961   0.43961   0.47529   0.51944
   0.51944   0.53987   0.53987
      occupation numbers for kpt#   1
   2.00000   2.00000   2.00000   2.00000   2.00000   2.00000   2.00000   2.00000
   2.00000   2.00000   2.00000   2.00000   2.00000   2.00000   2.00000   2.00000
   2.00000   1.99812   1.99812   1.99812   1.17513   1.17513   0.00017   0.00000
   0.00000   0.00000   0.00000
 kpt#   2, nband= 27, wtk=  0.12500, kpt=  0.5000  0.0000  0.0000 (reduced coord)
  -2.59413  -1.49241  -1.49241  -1.45351  -0.94571  -0.68292  -0.63775  -0.60737
  -0.18743  -0.18743  -0.18534   0.14010   0.14010   0.16877   0.18133   0.21948
   0.21948   0.23732   0.23732   0.25719   0.43290   0.45233   0.51082   0.62378
   0.62966   0.64424   0.64424
      occupation numbers for kpt#   2
   2.00000   2.00000   2.00000   2.00000   2.00000   2.00000   2.00000   2.00000
   2.00000   2.00000   2.00000   2.00000   2.00000   2.00000   2.00000   2.00000
   2.00000   2.00000   2.00000   2.00000   1.79672   0.08564   0.00000   0.00000
   0.00000   0.00000   0.00000
 kpt#   3, nband= 27, wtk=  0.12500, kpt=  0.0000  0.5000  0.0000 (reduced coord)
  -2.59413  -1.49241  -1.49241  -1.45351  -0.94571  -0.68292  -0.63775  -0.60737
  -0.18743  -0.18743  -0.18534   0.14010   0.14010   0.16877   0.18133   0.21948
   0.21948   0.23732   0.23732   0.25719   0.43290   0.45233   0.51082   0.62378
   0.62966   0.64424   0.64424
      occupation numbers for kpt#   3
   2.00000   2.00000   2.00000   2.00000   2.00000   2.00000   2.00000   2.00000
   2.00000   2.00000   2.00000   2.00000   2.00000   2.00000   2.00000   2.00000
   2.00000   2.00000   2.00000   2.00000   1.79672   0.08564   0.00000   0.00000
   0.00000   0.00000   0.00000
 kpt#   4, nband= 27, wtk=  0.12500, kpt=  0.5000  0.5000  0.0000 (reduced coord)
  -2.59633  -1.50235  -1.50235  -1.47849  -0.94873  -0.64153  -0.63989  -0.63989
  -0.20256  -0.20256  -0.17891   0.07543   0.13377   0.16200   0.18883   0.18883
   0.24831   0.24831   0.33143   0.33843   0.46517   0.49942   0.51737   0.51737
   0.54175   0.64707   0.67635
      occupation numbers for kpt#   4
   2.00000   2.00000   2.00000   2.00000   2.00000   2.00000   2.00000   2.00000
   2.00000   2.00000   2.00000   2.00000   2.00000   2.00000   2.00000   2.00000
   2.00000   2.00000   2.00000   2.00000   0.00271   0.00000   0.00000   0.00000
   0.00000   0.00000   0.00000
 kpt#   5, nband= 27, wtk=  0.12500, kpt=  0.0000  0.0000  0.5000 (reduced coord)
  -2.59413  -1.49241  -1.49241  -1.45351  -0.94571  -0.68292  -0.63775  -0.60737
  -0.18743  -0.18743  -0.18534   0.14010   0.14010   0.16877   0.18133   0.21948
   0.21948   0.23732   0.23732   0.25719   0.43290   0.45233   0.51082   0.62378
   0.62966   0.64424   0.64424
      occupation numbers for kpt#   5
   2.00000   2.00000   2.00000   2.00000   2.00000   2.00000   2.00000   2.00000
   2.00000   2.00000   2.00000   2.00000   2.00000   2.00000   2.00000   2.00000
   2.00000   2.00000   2.00000   2.00000   1.79672   0.08564   0.00000   0.00000
   0.00000   0.00000   0.00000
 kpt#   6, nband= 27, wtk=  0.12500, kpt=  0.5000  0.0000  0.5000 (reduced coord)
  -2.59633  -1.50235  -1.50235  -1.47849  -0.94873  -0.64153  -0.63989  -0.63989
  -0.20256  -0.20256  -0.17891   0.07543   0.13377   0.16200   0.18883   0.18883
   0.24831   0.24831   0.33143   0.33843   0.46517   0.49942   0.51737   0.51737
   0.54175   0.64707   0.67635
      occupation numbers for kpt#   6
   2.00000   2.00000   2.00000   2.00000   2.00000   2.00000   2.00000   2.00000
   2.00000   2.00000   2.00000   2.00000   2.00000   2.00000   2.00000   2.00000
   2.00000   2.00000   2.00000   2.00000   0.00271   0.00000   0.00000   0.00000
   0.00000   0.00000   0.00000
 kpt#   7, nband= 27, wtk=  0.12500, kpt=  0.0000  0.5000  0.5000 (reduced coord)
  -2.59633  -1.50235  -1.50235  -1.47849  -0.94873  -0.64153  -0.63989  -0.63989
  -0.20256  -0.20256  -0.17891   0.07543   0.13377   0.16200   0.18883   0.18883
   0.24831   0.24831   0.33143   0.33843   0.46517   0.49942   0.51737   0.51737
   0.54175   0.64707   0.67635
      occupation numbers for kpt#   7
   2.00000   2.00000   2.00000   2.00000   2.00000   2.00000   2.00000   2.00000
   2.00000   2.00000   2.00000   2.00000   2.00000   2.00000   2.00000   2.00000
   2.00000   2.00000   2.00000   2.00000   0.00271   0.00000   0.00000   0.00000
   0.00000   0.00000   0.00000
 kpt#   8, nband= 27, wtk=  0.12500, kpt=  0.5000  0.5000  0.5000 (reduced coord)
  -2.59042  -1.42616  -1.42616  -1.42616  -0.94217  -0.62509  -0.62509  -0.62509
  -0.19220  -0.19220  -0.19220   0.02214   0.20599   0.20599   0.20599   0.36257
   0.36257   0.38803   0.38803   0.38803   0.54043   0.54043   0.54043   0.65970
   0.65970   0.67203   0.74000
      occupation numbers for kpt#   8
   2.00000   2.00000   2.00000   2.00000   2.00000   2.00000   2.00000   2.00000
   2.00000   2.00000   2.00000   2.00000   2.00000   2.00000   2.00000   2.00000
   2.00000   2.00000   2.00000   2.00000   0.00000   0.00000   0.00000   0.00000
   0.00000   0.00000   0.00000
 Total charge density [el/Bohr^3]
,     Maximum=    1.2882E+00  at reduced coord.    0.0000    0.0000    0.0000
,Next maximum=    1.1356E+00  at reduced coord.    0.0000    0.0000    0.9375
,     Minimum=    1.1088E-02  at reduced coord.    0.4375    0.4375    0.0000
,Next minimum=    1.1088E-02  at reduced coord.    0.4375    0.5625    0.0000
,  Integrated=    4.0997E+01

--------------------------------------------------------------------------------
 Components of total free energy (in Hartree) :

    Kinetic energy  =  3.86537202031390E+01
    Hartree energy  =  2.25448310610766E+01
    XC energy       = -2.07863133056738E+01
    Ewald energy    = -1.14220316979058E+02
    PspCore energy  =  6.53692522600458E+00
    Loc. psp. energy= -7.97195908109888E+01
    Spherical terms =  3.27777354509168E+00
    >>>>> Internal E= -1.43712971060408E+02

    -kT*entropy     = -2.68844550051042E-03
    >>>>>>>>> Etotal= -1.43715659505909E+02

 "Double-counting" decomposition of free energy:
    Band energy     = -1.64989589979581E+01
    Ewald energy    = -1.14220316979058E+02
    PspCore energy  =  6.53692522600458E+00
    Dble-C XC-energy= -1.61544670131721E+01
    Spherical terms = -3.37615329670538E+00
    >>>>> Internal E= -1.43712971060889E+02

    -kT*entropy     = -2.68844550051042E-03
    >>>> Etotal (DC)= -1.43715659506389E+02

  >Total energy in eV           = -3.91070197750834E+03
  >Total DC energy in eV        = -3.91070197752141E+03
--------------------------------------------------------------------------------

 Cartesian components of stress tensor (hartree/bohr^3)
  sigma(1 1)=  2.81023902E-02  sigma(3 2)= -9.62188284E-14
  sigma(2 2)=  2.81023902E-02  sigma(3 1)= -4.35643723E-13
  sigma(3 3)=  2.81023902E-02  sigma(2 1)= -1.11755249E-13

-Cartesian components of stress tensor (GPa)         [Pressure= -8.2680E+02 GPa]
- sigma(1 1)=  8.26800725E+02  sigma(3 2)= -2.83085519E-09
- sigma(2 2)=  8.26800725E+02  sigma(3 1)= -1.28170787E-08
- sigma(3 3)=  8.26800725E+02  sigma(2 1)= -3.28795239E-09

================================================================================
== DATASET  3 ==================================================================
-   nproc =    1

 mkfilename : getwfk/=0, take file _WFK from output of DATASET   2.

 Exchange-correlation functional for the present dataset will be:
  LDA: Perdew-Wang 92 LSD fit to Ceperley-Alder data - ixc=7
 Citation for XC functional:
  J.P.Perdew and Y.Wang, PRB 45, 13244 (1992)

 Real(R)+Recip(G) space primitive vectors, cartesian coordinates (Bohr,Bohr^-1):
 R(1)=  7.2605000  0.0000000  0.0000000  G(1)=  0.1377316  0.0000000  0.0000000
 R(2)=  0.0000000  7.2605000  0.0000000  G(2)=  0.0000000  0.1377316  0.0000000
 R(3)=  0.0000000  0.0000000  7.2605000  G(3)=  0.0000000  0.0000000  0.1377316
 Unit cell volume ucvol=  3.8273624E+02 bohr^3
 Angles (23,13,12)=  9.00000000E+01  9.00000000E+01  9.00000000E+01 degrees

 Coarse grid specifications (used for wave-functions):

 getcut: wavevector=  0.0000  0.0000  0.0000  ngfft=  15  15  15
         ecut(hartree)=      4.000   => boxcut(ratio)=   2.14174

 Fine grid specifications (used for densities):

 getcut: wavevector=  0.0000  0.0000  0.0000  ngfft=  16  16  16
         ecut(hartree)=      5.000   => boxcut(ratio)=   2.18929
--------------------------------------------------------------------------------

-inwffil : will read wavefunctions from disk file t23o_DS2_WFK
P newkpt: treating     27 bands with npw=     147 for ikpt=   1 by node    0
P newkpt: treating     27 bands with npw=     150 for ikpt=   2 by node    0
P newkpt: treating     27 bands with npw=     150 for ikpt=   3 by node    0
P newkpt: treating     27 bands with npw=     152 for ikpt=   4 by node    0
P newkpt: treating     27 bands with npw=     150 for ikpt=   5 by node    0
P newkpt: treating     27 bands with npw=     152 for ikpt=   6 by node    0
P newkpt: treating     27 bands with npw=     152 for ikpt=   7 by node    0
P newkpt: treating     27 bands with npw=     136 for ikpt=   8 by node    0

_setup2: Arith. and geom. avg. npw (full set) are     148.625     148.536


 ******************************************
 DFT+DMFT Method is used
 ******************************************

 DMFT uses the Hubbard one solver

================================================================================

     iter   Etot(hartree)      deltaE(h)  residm     nres2
 ETOT  1  -143.71565950639    -1.437E+02 1.583E-15 9.114E-19

 At SCF step    1       nres2   =  9.11E-19 < tolvrs=  1.00E-15 =>converged.

 Cartesian components of stress tensor (hartree/bohr^3)
  sigma(1 1)=  2.81023902E-02  sigma(3 2)=  3.19711427E-15
  sigma(2 2)=  2.81023902E-02  sigma(3 1)=  9.92642903E-14
  sigma(3 3)=  2.81023902E-02  sigma(2 1)=  2.63471751E-14


 PAW TEST:
 ==== Compensation charge inside spheres ============
 The following values must be close to each other ...
 Compensation charge over spherical meshes =      4.289884206879488
 Compensation charge over fine fft grid    =      4.286717783011261

 ==== Results concerning PAW augmentation regions ====

 Total pseudopotential strength Dij (hartree):
 Atom #  1
  -1.82971   0.43488  -2.53778   0.00000   0.00000   0.00000   0.00000   0.00000   0.00000   0.00000   0.00000   0.00000 ...
   0.43488   0.15608  -1.44717   0.00000   0.00000   0.00000   0.00000   0.00000   0.00000   0.00000   0.00000   0.00000 ...
  -2.53778  -1.44717  15.42130   0.00000   0.00000   0.00000   0.00000   0.00000   0.00000   0.00000   0.00000   0.00000 ...
   0.00000   0.00000   0.00000  -1.46914   0.00000   0.00000   0.15193   0.00000   0.00000  -0.13362   0.00000   0.00000 ...
   0.00000   0.00000   0.00000   0.00000  -1.46914   0.00000   0.00000   0.15193   0.00000   0.00000  -0.13362   0.00000 ...
   0.00000   0.00000   0.00000   0.00000   0.00000  -1.46914   0.00000   0.00000   0.15193   0.00000   0.00000  -0.13362 ...
   0.00000   0.00000   0.00000   0.15193   0.00000   0.00000   0.02851   0.00000   0.00000  -0.13351   0.00000   0.00000 ...
   0.00000   0.00000   0.00000   0.00000   0.15193   0.00000   0.00000   0.02851   0.00000   0.00000  -0.13351   0.00000 ...
   0.00000   0.00000   0.00000   0.00000   0.00000   0.15193   0.00000   0.00000   0.02851   0.00000   0.00000  -0.13351 ...
   0.00000   0.00000   0.00000  -0.13362   0.00000   0.00000  -0.13351   0.00000   0.00000   2.10571   0.00000   0.00000 ...
   0.00000   0.00000   0.00000   0.00000  -0.13362   0.00000   0.00000  -0.13351   0.00000   0.00000   2.10571   0.00000 ...
   0.00000   0.00000   0.00000   0.00000   0.00000  -0.13362   0.00000   0.00000  -0.13351   0.00000   0.00000   2.10571 ...
   ...  only 12  components have been written...
 Atom #  5
   0.10993   0.03971   0.00000   0.00000   0.00000   0.00000   0.00000   0.00000
   0.03971   0.05170   0.00000   0.00000   0.00000   0.00000   0.00000   0.00000
   0.00000   0.00000  -0.81320   0.00000   0.00000   0.07675   0.00000   0.00000
   0.00000   0.00000   0.00000  -0.81458   0.00000   0.00000   0.07577   0.00000
   0.00000   0.00000   0.00000   0.00000  -0.81320   0.00000   0.00000   0.07675
   0.00000   0.00000   0.07675   0.00000   0.00000  -1.26351   0.00000   0.00000
   0.00000   0.00000   0.00000   0.07577   0.00000   0.00000  -1.26471   0.00000
   0.00000   0.00000   0.00000   0.00000   0.07675   0.00000   0.00000  -1.26351


 Augmentation waves occupancies Rhoij:
 Atom #  1
   1.99000  -0.10694  -0.00120   0.00000   0.00000   0.00000   0.00000   0.00000   0.00000   0.00000   0.00000   0.00000 ...
  -0.10694   2.51089   0.02728   0.00000   0.00000   0.00000  -0.00000   0.00000   0.00000   0.00000   0.00000   0.00000 ...
  -0.00120   0.02728   0.00064   0.00000   0.00000   0.00000   0.00000   0.00000   0.00000   0.00000   0.00000   0.00000 ...
   0.00000   0.00000   0.00000   1.97991   0.00000   0.00000   0.16892   0.00000   0.00000  -0.12925   0.00000   0.00000 ...
   0.00000   0.00000   0.00000   0.00000   1.97991   0.00000   0.00000   0.16892   0.00000   0.00000  -0.12925   0.00000 ...
   0.00000   0.00000   0.00000   0.00000   0.00000   1.97991   0.00000   0.00000   0.16892   0.00000   0.00000  -0.12925 ...
   0.00000  -0.00000   0.00000   0.16892   0.00000   0.00000   3.84626   0.00000   0.00000   0.02091   0.00000   0.00000 ...
   0.00000   0.00000   0.00000   0.00000   0.16892   0.00000   0.00000   3.84626   0.00000   0.00000   0.02091   0.00000 ...
   0.00000   0.00000   0.00000   0.00000   0.00000   0.16892   0.00000   0.00000   3.84626   0.00000   0.00000   0.02091 ...
   0.00000   0.00000   0.00000  -0.12925   0.00000   0.00000   0.02091   0.00000   0.00000   0.01047   0.00000   0.00000 ...
   0.00000   0.00000   0.00000   0.00000  -0.12925   0.00000   0.00000   0.02091   0.00000   0.00000   0.01047   0.00000 ...
   0.00000   0.00000   0.00000   0.00000   0.00000  -0.12925   0.00000   0.00000   0.02091   0.00000   0.00000   0.01047 ...
   ...  only 12  components have been written...
 Atom #  5
   1.68323   0.10827   0.00000   0.00000   0.00000   0.00000   0.00000   0.00000
   0.10827   0.00765   0.00000   0.00000   0.00000   0.00000   0.00000   0.00000
   0.00000   0.00000   0.51307   0.00000   0.00000   0.13325   0.00000   0.00000
   0.00000   0.00000   0.00000   0.54213   0.00000   0.00000   0.14111   0.00000
   0.00000   0.00000   0.00000   0.00000   0.51307   0.00000   0.00000   0.13325
   0.00000   0.00000   0.13325   0.00000   0.00000   0.03469   0.00000   0.00000
   0.00000   0.00000   0.00000   0.14111   0.00000   0.00000   0.03693   0.00000
   0.00000   0.00000   0.00000   0.00000   0.13325   0.00000   0.00000   0.03469

 "PAW+U" part of augmentation waves occupancies Rhoij:
 Atom #  1 - L=2 ONLY
   0.17981   0.00000   0.00000   0.00000   0.00000   0.11746   0.00000   0.00000   0.00000   0.00000
   0.00000   0.17981   0.00000   0.00000   0.00000   0.00000   0.11746   0.00000   0.00000   0.00000
   0.00000   0.00000   0.61073   0.00000   0.00000   0.00000   0.00000   0.17778   0.00000   0.00000
   0.00000   0.00000   0.00000   0.17981   0.00000   0.00000   0.00000   0.00000   0.11746   0.00000
   0.00000   0.00000   0.00000   0.00000   0.61073   0.00000   0.00000   0.00000   0.00000   0.17778
   0.11746   0.00000   0.00000   0.00000   0.00000   0.08793   0.00000   0.00000   0.00000   0.00000
   0.00000   0.11746   0.00000   0.00000   0.00000   0.00000   0.08793   0.00000   0.00000   0.00000
   0.00000   0.00000   0.17778   0.00000   0.00000   0.00000   0.00000   0.27708   0.00000   0.00000
   0.00000   0.00000   0.00000   0.11746   0.00000   0.00000   0.00000   0.00000   0.08793   0.00000
   0.00000   0.00000   0.00000   0.00000   0.17778   0.00000   0.00000   0.00000   0.00000   0.27708

 ---------- LDA+U DATA --------------------------------------------------- 

 ====== For Atom     1, occupations for correlated orbitals. lpawu =   2


 == Occupation matrix for correlated orbitals:

 Up component only...
     0.05331    0.00000    0.00000    0.00000    0.00000
     0.00000    0.05331    0.00000    0.00000    0.00000
     0.00000    0.00000    0.21006    0.00000    0.00000
     0.00000    0.00000    0.00000    0.05331    0.00000
     0.00000    0.00000    0.00000    0.00000    0.21006




======================================================================
 Calculating and writing out Kohn-Sham electronic Structure file
 Using conjugate gradient wavefunctions and energies (kssform=3)
 number of Gamma centered plane waves    205
 number of Gamma centered shells    205
 number of bands     27
 maximum angular momentum components      3
 Conjugate gradient eigenvalues
   k    eigenvalues [Hartree]
   1     -2.5939 -1.4702 -1.4702 -1.4702 -0.9469 -0.6487 -0.6487 -0.6392 -0.1924
         -0.1924 -0.1924  0.1180  0.1180  0.1180  0.2372  0.2372  0.2372  0.4153
          0.4153  0.4153  0.4396  0.4396  0.4753  0.5194  0.5194  0.5399  0.5399
   2     -2.5941 -1.4924 -1.4924 -1.4535 -0.9457 -0.6829 -0.6377 -0.6074 -0.1874
         -0.1874 -0.1853  0.1401  0.1401  0.1688  0.1813  0.2195  0.2195  0.2373
          0.2373  0.2572  0.4329  0.4523  0.5108  0.6238  0.6297  0.6442  0.6442
   3     -2.5941 -1.4924 -1.4924 -1.4535 -0.9457 -0.6829 -0.6377 -0.6074 -0.1874
         -0.1874 -0.1853  0.1401  0.1401  0.1688  0.1813  0.2195  0.2195  0.2373
          0.2373  0.2572  0.4329  0.4523  0.5108  0.6238  0.6297  0.6442  0.6442
   4     -2.5963 -1.5024 -1.5024 -1.4785 -0.9487 -0.6415 -0.6399 -0.6399 -0.2026
         -0.2026 -0.1789  0.0754  0.1338  0.1620  0.1888  0.1888  0.2483  0.2483
          0.3314  0.3384  0.4652  0.4994  0.5174  0.5174  0.5418  0.6471  0.6764
   5     -2.5941 -1.4924 -1.4924 -1.4535 -0.9457 -0.6829 -0.6377 -0.6074 -0.1874
         -0.1874 -0.1853  0.1401  0.1401  0.1688  0.1813  0.2195  0.2195  0.2373
          0.2373  0.2572  0.4329  0.4523  0.5108  0.6238  0.6297  0.6442  0.6442
   6     -2.5963 -1.5024 -1.5024 -1.4785 -0.9487 -0.6415 -0.6399 -0.6399 -0.2026
         -0.2026 -0.1789  0.0754  0.1338  0.1620  0.1888  0.1888  0.2483  0.2483
          0.3314  0.3384  0.4652  0.4994  0.5174  0.5174  0.5418  0.6471  0.6764
   7     -2.5963 -1.5024 -1.5024 -1.4785 -0.9487 -0.6415 -0.6399 -0.6399 -0.2026
         -0.2026 -0.1789  0.0754  0.1338  0.1620  0.1888  0.1888  0.2483  0.2483
          0.3314  0.3384  0.4652  0.4994  0.5174  0.5174  0.5418  0.6471  0.6764
   8     -2.5904 -1.4262 -1.4262 -1.4262 -0.9422 -0.6251 -0.6251 -0.6251 -0.1922
         -0.1922 -0.1922  0.0221  0.2060  0.2060  0.2060  0.3626  0.3626  0.3880
          0.3880  0.3880  0.5404  0.5404  0.5404  0.6597  0.6597  0.6720  0.7400
 Test on the normalization of the wavefunctions
  min sum_G |a(n,k,G)| =  1.000000
  max sum_G |a(n,k,G)| =  1.000000
 Test on the orthogonalization of the wavefunctions
  min sum_G a(n,k,G)a(n',k,G) =  0.000000
  max sum_G a(n,k,G)a(n',k,G) =  0.000000

================================================================================

 ----iterations are completed or convergence reached----

 Mean square residual over all n,k,spin=   1.9740E-17; max=  1.5832E-15
   0.0000  0.0000  0.0000    1  2.64772E-19 kpt; spin; max resid(k); each band:
  2.47E-25 5.05E-25 7.74E-25 9.51E-25 1.66E-25 8.43E-25 4.62E-25 4.13E-24
[...]
                       5.00000000E-01  5.00000000E-01  5.00000000E-01
         kptrlatt        2    0    0      0    2    0      0    0    2
          kptrlen      1.45210000E+01
          kssform           3
            lpawu           2      -1      -1
P           mkmem1          4
P           mkmem2          8
P           mkmem3          8
            natom           5
            nband1         27
            nband2         27
            nband3         27
         nbandkss1          0
         nbandkss2          0
         nbandkss3         -1
           ndtset           3
            ngfft          15      15      15
          ngfftdg          16      16      16
             nkpt1          4
             nkpt2          8
             nkpt3          8
            nline           5
           nnsclo1          2
           nnsclo2          5
           nnsclo3          2
            nstep1         15
            nstep2         10
            nstep3         15
             nsym1         48
             nsym2          1
             nsym3          1
           ntypat           3
              occ1     2.000000  2.000000  2.000000  2.000000  2.000000  2.000000
                       2.000000  2.000000  2.000000  2.000000  2.000000  2.000000
                       2.000000  2.000000  2.000000  2.000000  2.000000  1.998117
                       1.998117  1.998117  1.175125  1.175125  0.000173  0.000000
                       0.000000  0.000000  0.000000
                       2.000000  2.000000  2.000000  2.000000  2.000000  2.000000
                       2.000000  2.000000  2.000000  2.000000  2.000000  2.000000
                       2.000000  2.000000  2.000000  2.000000  2.000000  2.000000
                       2.000000  2.000000  1.796719  0.085645  0.000000  0.000000
                       0.000000  0.000000  0.000000
                       2.000000  2.000000  2.000000  2.000000  2.000000  2.000000
                       2.000000  2.000000  2.000000  2.000000  2.000000  2.000000
                       2.000000  2.000000  2.000000  2.000000  2.000000  2.000000
                       2.000000  2.000000  0.002712  0.000000  0.000000  0.000000
                       0.000000  0.000000  0.000000
                       2.000000  2.000000  2.000000  2.000000  2.000000  2.000000
                       2.000000  2.000000  2.000000  2.000000  2.000000  2.000000
                       2.000000  2.000000  2.000000  2.000000  2.000000  1.999999
                       1.999999  1.999999  0.000000  0.000000  0.000000  0.000000
                       0.000000  0.000000  0.000000
              occ2     2.000000  2.000000  2.000000  2.000000  2.000000  2.000000
                       2.000000  2.000000  2.000000  2.000000  2.000000  2.000000
                       2.000000  2.000000  2.000000  2.000000  2.000000  1.998117
                       1.998117  1.998117  1.175125  1.175125  0.000173  0.000000
                       0.000000  0.000000  0.000000
                       2.000000  2.000000  2.000000  2.000000  2.000000  2.000000
                       2.000000  2.000000  2.000000  2.000000  2.000000  2.000000
                       2.000000  2.000000  2.000000  2.000000  2.000000  2.000000
                       2.000000  2.000000  1.796719  0.085645  0.000000  0.000000
                       0.000000  0.000000  0.000000
                       2.000000  2.000000  2.000000  2.000000  2.000000  2.000000
                       2.000000  2.000000  2.000000  2.000000  2.000000  2.000000
                       2.000000  2.000000  2.000000  2.000000  2.000000  2.000000
                       2.000000  2.000000  1.796719  0.085645  0.000000  0.000000
                       0.000000  0.000000  0.000000
                       2.000000  2.000000  2.000000  2.000000  2.000000  2.000000
                       2.000000  2.000000  2.000000  2.000000  2.000000  2.000000
                       2.000000  2.000000  2.000000  2.000000  2.000000  2.000000
                       2.000000  2.000000  0.002712  0.000000  0.000000  0.000000
                       0.000000  0.000000  0.000000
                       2.000000  2.000000  2.000000  2.000000  2.000000  2.000000
                       2.000000  2.000000  2.000000  2.000000  2.000000  2.000000
                       2.000000  2.000000  2.000000  2.000000  2.000000  2.000000
                       2.000000  2.000000  1.796719  0.085645  0.000000  0.000000
                       0.000000  0.000000  0.000000
                       2.000000  2.000000  2.000000  2.000000  2.000000  2.000000
                       2.000000  2.000000  2.000000  2.000000  2.000000  2.000000
                       2.000000  2.000000  2.000000  2.000000  2.000000  2.000000
                       2.000000  2.000000  0.002712  0.000000  0.000000  0.000000
                       0.000000  0.000000  0.000000
                       2.000000  2.000000  2.000000  2.000000  2.000000  2.000000
                       2.000000  2.000000  2.000000  2.000000  2.000000  2.000000
                       2.000000  2.000000  2.000000  2.000000  2.000000  2.000000
                       2.000000  2.000000  0.002712  0.000000  0.000000  0.000000
                       0.000000  0.000000  0.000000
                       2.000000  2.000000  2.000000  2.000000  2.000000  2.000000
                       2.000000  2.000000  2.000000  2.000000  2.000000  2.000000
                       2.000000  2.000000  2.000000  2.000000  2.000000  1.999999
                       1.999999  1.999999  0.000000  0.000000  0.000000  0.000000
                       0.000000  0.000000  0.000000
              occ3     2.000000  2.000000  2.000000  2.000000  2.000000  2.000000
                       2.000000  2.000000  2.000000  2.000000  2.000000  2.000000
                       2.000000  2.000000  2.000000  2.000000  2.000000  1.998117
                       1.998117  1.998117  1.175125  1.175125  0.000173  0.000000
                       0.000000  0.000000  0.000000
                       2.000000  2.000000  2.000000  2.000000  2.000000  2.000000
                       2.000000  2.000000  2.000000  2.000000  2.000000  2.000000
                       2.000000  2.000000  2.000000  2.000000  2.000000  2.000000
                       2.000000  2.000000  1.796719  0.085645  0.000000  0.000000
                       0.000000  0.000000  0.000000
                       2.000000  2.000000  2.000000  2.000000  2.000000  2.000000
                       2.000000  2.000000  2.000000  2.000000  2.000000  2.000000
                       2.000000  2.000000  2.000000  2.000000  2.000000  2.000000
                       2.000000  2.000000  1.796719  0.085645  0.000000  0.000000
                       0.000000  0.000000  0.000000
                       2.000000  2.000000  2.000000  2.000000  2.000000  2.000000
                       2.000000  2.000000  2.000000  2.000000  2.000000  2.000000
                       2.000000  2.000000  2.000000  2.000000  2.000000  2.000000
                       2.000000  2.000000  0.002712  0.000000  0.000000  0.000000
                       0.000000  0.000000  0.000000
                       2.000000  2.000000  2.000000  2.000000  2.000000  2.000000
                       2.000000  2.000000  2.000000  2.000000  2.000000  2.000000
                       2.000000  2.000000  2.000000  2.000000  2.000000  2.000000
                       2.000000  2.000000  1.796719  0.085645  0.000000  0.000000
                       0.000000  0.000000  0.000000
                       2.000000  2.000000  2.000000  2.000000  2.000000  2.000000
                       2.000000  2.000000  2.000000  2.000000  2.000000  2.000000
                       2.000000  2.000000  2.000000  2.000000  2.000000  2.000000
                       2.000000  2.000000  0.002712  0.000000  0.000000  0.000000
                       0.000000  0.000000  0.000000
                       2.000000  2.000000  2.000000  2.000000  2.000000  2.000000
                       2.000000  2.000000  2.000000  2.000000  2.000000  2.000000
                       2.000000  2.000000  2.000000  2.000000  2.000000  2.000000
                       2.000000  2.000000  0.002712  0.000000  0.000000  0.000000
                       0.000000  0.000000  0.000000
                       2.000000  2.000000  2.000000  2.000000  2.000000  2.000000
                       2.000000  2.000000  2.000000  2.000000  2.000000  2.000000
                       2.000000  2.000000  2.000000  2.000000  2.000000  1.999999
                       1.999999  1.999999  0.000000  0.000000  0.000000  0.000000
                       0.000000  0.000000  0.000000
           occopt           3
        pawecutdg      5.00000000E+00 Hartree
          ppmodel           3
          spgroup1        221
          spgroup2          1
          spgroup3          1
           strten1     2.8102390210E-02  2.8102390210E-02  2.8102390210E-02
                       0.0000000000E+00  0.0000000000E+00  0.0000000000E+00
           strten2     2.8102390187E-02  2.8102390186E-02  2.8102390186E-02
                      -9.6218828395E-14 -4.3564372286E-13 -1.1175524920E-13
           strten3     2.8102390200E-02  2.8102390199E-02  2.8102390198E-02
                       3.1971142724E-15  9.9264290338E-14  2.6347175110E-14
           symafm1       1    1    1    1    1    1    1    1    1    1
                         1    1    1    1    1    1    1    1    1    1
                         1    1    1    1    1    1    1    1    1    1
                         1    1    1    1    1    1    1    1    1    1
                         1    1    1    1    1    1    1    1
           symafm2       1
           symafm3       1
           symrel1     1  0  0   0  1  0   0  0  1      -1  0  0   0 -1  0   0  0 -1
                      -1  0  0   0  1  0   0  0 -1       1  0  0   0 -1  0   0  0  1
                      -1  0  0   0 -1  0   0  0  1       1  0  0   0  1  0   0  0 -1
                       1  0  0   0 -1  0   0  0 -1      -1  0  0   0  1  0   0  0  1
                       0  1  0   1  0  0   0  0  1       0 -1  0  -1  0  0   0  0 -1
                       0 -1  0   1  0  0   0  0 -1       0  1  0  -1  0  0   0  0  1
                       0 -1  0  -1  0  0   0  0  1       0  1  0   1  0  0   0  0 -1
                       0  1  0  -1  0  0   0  0 -1       0 -1  0   1  0  0   0  0  1
                       0  0  1   1  0  0   0  1  0       0  0 -1  -1  0  0   0 -1  0
                       0  0 -1   1  0  0   0 -1  0       0  0  1  -1  0  0   0  1  0
                       0  0 -1  -1  0  0   0  1  0       0  0  1   1  0  0   0 -1  0
                       0  0  1  -1  0  0   0 -1  0       0  0 -1   1  0  0   0  1  0
                       1  0  0   0  0  1   0  1  0      -1  0  0   0  0 -1   0 -1  0
                      -1  0  0   0  0  1   0 -1  0       1  0  0   0  0 -1   0  1  0
                      -1  0  0   0  0 -1   0  1  0       1  0  0   0  0  1   0 -1  0
                       1  0  0   0  0 -1   0 -1  0      -1  0  0   0  0  1   0  1  0
                       0  1  0   0  0  1   1  0  0       0 -1  0   0  0 -1  -1  0  0
                       0 -1  0   0  0  1  -1  0  0       0  1  0   0  0 -1   1  0  0
                       0 -1  0   0  0 -1   1  0  0       0  1  0   0  0  1  -1  0  0
                       0  1  0   0  0 -1  -1  0  0       0 -1  0   0  0  1   1  0  0
                       0  0  1   0  1  0   1  0  0       0  0 -1   0 -1  0  -1  0  0
                       0  0 -1   0  1  0  -1  0  0       0  0  1   0 -1  0   1  0  0
                       0  0 -1   0 -1  0   1  0  0       0  0  1   0  1  0  -1  0  0
                       0  0  1   0 -1  0  -1  0  0       0  0 -1   0  1  0   1  0  0
           symrel2     1  0  0   0  1  0   0  0  1
           symrel3     1  0  0   0  1  0   0  0  1
            tnons1     0.0000000  0.0000000  0.0000000     0.0000000  0.0000000  0.0000000
                       0.0000000  0.0000000  0.0000000     0.0000000  0.0000000  0.0000000
                       0.0000000  0.0000000  0.0000000     0.0000000  0.0000000  0.0000000
                       0.0000000  0.0000000  0.0000000     0.0000000  0.0000000  0.0000000
                       0.0000000  0.0000000  0.0000000     0.0000000  0.0000000  0.0000000
                       0.0000000  0.0000000  0.0000000     0.0000000  0.0000000  0.0000000
                       0.0000000  0.0000000  0.0000000     0.0000000  0.0000000  0.0000000
                       0.0000000  0.0000000  0.0000000     0.0000000  0.0000000  0.0000000
                       0.0000000  0.0000000  0.0000000     0.0000000  0.0000000  0.0000000
                       0.0000000  0.0000000  0.0000000     0.0000000  0.0000000  0.0000000
                       0.0000000  0.0000000  0.0000000     0.0000000  0.0000000  0.0000000
                       0.0000000  0.0000000  0.0000000     0.0000000  0.0000000  0.0000000
                       0.0000000  0.0000000  0.0000000     0.0000000  0.0000000  0.0000000
                       0.0000000  0.0000000  0.0000000     0.0000000  0.0000000  0.0000000
                       0.0000000  0.0000000  0.0000000     0.0000000  0.0000000  0.0000000
                       0.0000000  0.0000000  0.0000000     0.0000000  0.0000000  0.0000000
                       0.0000000  0.0000000  0.0000000     0.0000000  0.0000000  0.0000000
                       0.0000000  0.0000000  0.0000000     0.0000000  0.0000000  0.0000000
                       0.0000000  0.0000000  0.0000000     0.0000000  0.0000000  0.0000000
                       0.0000000  0.0000000  0.0000000     0.0000000  0.0000000  0.0000000
                       0.0000000  0.0000000  0.0000000     0.0000000  0.0000000  0.0000000
                       0.0000000  0.0000000  0.0000000     0.0000000  0.0000000  0.0000000
                       0.0000000  0.0000000  0.0000000     0.0000000  0.0000000  0.0000000
                       0.0000000  0.0000000  0.0000000     0.0000000  0.0000000  0.0000000
            tnons2     0.0000000  0.0000000  0.0000000
            tnons3     0.0000000  0.0000000  0.0000000
           tolvrs      1.00000000E-15
           tsmear      3.67490000E-03 Hartree
            typat      1  2  3  3  3
          usedmft1          0
          usedmft2          0
          usedmft3          1
          usepawu           1
           useylm           1
              wtk1       0.12500    0.37500    0.37500    0.12500
              wtk2       0.12500    0.12500    0.12500    0.12500    0.12500    0.12500
                         0.12500    0.12500
              wtk3       0.12500    0.12500    0.12500    0.12500    0.12500    0.12500
                         0.12500    0.12500
           xangst      0.0000000000E+00  0.0000000000E+00  0.0000000000E+00
                       1.9210455615E+00  1.9210455615E+00  1.9210455615E+00
                       1.9210455615E+00  0.0000000000E+00  0.0000000000E+00
                       0.0000000000E+00  1.9210455615E+00  0.0000000000E+00
                       0.0000000000E+00  0.0000000000E+00  1.9210455615E+00
            xcart      0.0000000000E+00  0.0000000000E+00  0.0000000000E+00
                       3.6302500000E+00  3.6302500000E+00  3.6302500000E+00
                       3.6302500000E+00  0.0000000000E+00  0.0000000000E+00
                       0.0000000000E+00  3.6302500000E+00  0.0000000000E+00
                       0.0000000000E+00  0.0000000000E+00  3.6302500000E+00
             xred      0.0000000000E+00  0.0000000000E+00  0.0000000000E+00
                       5.0000000000E-01  5.0000000000E-01  5.0000000000E-01
                       5.0000000000E-01  0.0000000000E+00  0.0000000000E+00
                       0.0000000000E+00  5.0000000000E-01  0.0000000000E+00
                       0.0000000000E+00  0.0000000000E+00  5.0000000000E-01
            znucl       23.00000   38.00000    8.00000

================================================================================


- Timing analysis has been suppressed with timopt=0



================================================================================

 Suggested references for the acknowledgment of ABINIT usage.

 The users of ABINIT have little formal obligations with respect to the ABINIT group
 (those specified in the GNU General Public License, http://www.gnu.org/copyleft/gpl.txt).
 However, it is common practice in the scientific literature,
 to acknowledge the efforts of people that have made the research possible.
 In this spirit, please find below suggested citations of work written by ABINIT developers,
 corresponding to implementations inside of ABINIT that you have used in the present run.
 Note also that it will be of great value to readers of publications presenting these results,
 to read papers enabling them to understand the theoretical formalism and details
 of the ABINIT implementation.
 For information on why they are suggested, see also http://www.abinit.org/about/?text=acknowledgments.

 [1] Plane-wave based electronic strcture calculations for correlated materials.
 using dynamical mean-field theory and projected local orbitals,
 B. Amadon, F. Lechermann, A. Georges, F. Jollet, T.O. Wehling, A.I. Lichenstein,
 Phys. Rev. B 77, 205112 (2008).
 Comment : to be cited in case the computation of overlap operator for Wannier90 interface within PAW is used,
 i.e. prtwant=2 and usepaw=1. The paper describes also the DFT+DMFT implementation on Wannier functions

 [2] Gamma and beta cerium: LDA+U calculations of ground-state parameters.
 B. Amadon, F. Jollet and M. Torrent, Phys. Rev. B 77, 155104 (2008).
 Comment : LDA+U calculations, usepawu/=0. Strong suggestion to cite this paper.

 [3] Implementation of the Projector Augmented-Wave Method in the ABINIT code.
 M. Torrent, F. Jollet, F. Bottin, G. Zerah, and X. Gonze Comput. Mat. Science 42, 337, (2008).
 Comment : PAW calculations. Strong suggestion to cite this paper.

 [4] ABINIT : First-principles approach of materials and nanosystem properties.
 X. Gonze, B. Amadon, P.-M. Anglade, J.-M. Beuken, F. Bottin, P. Boulanger, F. Bruneval,
 D. Caliste, R. Caracas, M. Cote, T. Deutsch, L. Genovese, Ph. Ghosez, M. Giantomassi
 S. Goedecker, D.R. Hamann, P. Hermet, F. Jollet, G. Jomard, S. Leroux, M. Mancini, S. Mazevet,
 M.J.T. Oliveira, G. Onida, Y. Pouillon, T. Rangel, G.-M. Rignanese, D. Sangalli, R. Shaltaf,
 M. Torrent, M.J. Verstraete, G. Zerah, J.W. Zwanziger
 Computer Phys. Comm. 180, 2582-2615 (2009).
 Comment : the third generic paper describing the ABINIT project.
 Note that a version of this paper, that is not formatted for Computer Phys. Comm. 
 is available at http://www.abinit.org/about/ABINIT_CPC_v10.pdf .
 The licence allows the authors to put it on the Web.

 [5] A brief introduction to the ABINIT software package.
 X. Gonze, G.-M. Rignanese, M. Verstraete, J.-M. Beuken, Y. Pouillon, R. Caracas, F. Jollet,
 M. Torrent, G. Zerah, M. Mikami, Ph. Ghosez, M. Veithen, J.-Y. Raty, V. Olevano, F. Bruneval,
 L. Reining, R. Godby, G. Onida, D.R. Hamann, and D.C. Allan.
 Z. Kristallogr. 220, 558-562 (2005).
 Comment : the second generic paper describing the ABINIT project. Note that this paper
 should be cited especially if you are using the GW part of ABINIT, as several authors
 of this part are not in the list of authors of the first or third paper.
 The .pdf of the latter paper is available at http://www.abinit.org/about/zfk_0505-06_558-562.pdf.
 Note that it should not redistributed (Copyright by Oldenburg Wissenshaftverlag,
 the licence allows the authors to put it on the Web).
-
- Proc.   0 individual time (sec): cpu=         20.9  wall=         23.5

================================================================================

 Calculation completed.
.Delivered   13 WARNINGs and   6 COMMENTs to log file.
+Overall time at end (sec) : cpu=         20.9  wall=         23.5
