
.Version 7.10.4 of ABINIT 
.(MPI version, prepared for a x86_64_linux_gnu4.7 computer) 

.Copyright (C) 1998-2014 ABINIT group . 
 ABINIT comes with ABSOLUTELY NO WARRANTY.
 It is free software, and you are welcome to redistribute it
 under certain conditions (GNU General Public License,
 see ~abinit/COPYING or http://www.gnu.org/copyleft/gpl.txt).

 ABINIT is a project of the Universite Catholique de Louvain,
 Corning Inc. and other collaborators, see ~abinit/doc/developers/contributors.txt .
 Please read ~abinit/doc/users/acknowledgments.html for suggested
 acknowledgments of the ABINIT effort.
 For more information, see http://www.abinit.org .

.Starting date : Wed 11 Mar 2015.
- ( at 10h32 )
  
- input  file    -> t51.in
- output file    -> t51.out
- root for input  files -> t51i
- root for output files -> t51o


 DATASET    1 : space group P1 (#  1); Bravais aP (primitive triclinic)
================================================================================
 Values of the parameters that define the memory need for DATASET  1 (RF).
   intxc =         0    iscf =         7 xclevel =         1  lmnmax =         1
   lnmax =         1   mband =         8  mffmem =         1   mgfft =        20
P  mkmem =         8  mkqmem =         8  mk1mem =         8 mpssoang=         2
     mpw =       332  mqgrid =      3001   natom =         2    nfft =      8000
    nkpt =         8  nloalg =         4  nspden =         1 nspinor =         1
  nsppol =         1    nsym =         1  n1xccc =      2501  ntypat =         1
  occopt =         1
================================================================================
P This job should need less than                       3.691 Mbytes of memory.
  Rough estimation (10% accuracy) of disk space for files :
_ WF disk file :      0.326 Mbytes ; DEN or POT disk file :      0.063 Mbytes.
================================================================================

--------------------------------------------------------------------------------
------------- Echo of variables that govern the present computation ------------
--------------------------------------------------------------------------------
-
- outvars: echo of selected default values                                      
-   accesswff0 =  0 , fftalg0 =112 , wfoptalg0 =  0
-
- outvars: echo of global parameters not present in the input file              
-  max_nthreads =    0
-
 -outvars: echo values of preprocessed input variables --------
            acell      6.7034680500E+00  6.7034680500E+00  6.7034680500E+00 Bohr
              amu      1.20110000E+01
           diemac      6.00000000E+00
             ecut      2.00000000E+01 Hartree
           ecutsm      5.00000000E-01 Hartree
    elph2_imagden      3.67493254E-03 Hartree
           enunit           2
-          fftalg         112
           getwfk          99
          ieig2rf           1
       irdwfkfine           1
           irdwfq           1
           istwfk        1    1    1    1    1    1    1    1
           jdtset        1
              kpt      0.00000000E+00  0.00000000E+00  0.00000000E+00
                       5.00000000E-01  0.00000000E+00  0.00000000E+00
                       0.00000000E+00  5.00000000E-01  0.00000000E+00
                       5.00000000E-01  5.00000000E-01  0.00000000E+00
                       0.00000000E+00  0.00000000E+00  5.00000000E-01
                       5.00000000E-01  0.00000000E+00  5.00000000E-01
                       0.00000000E+00  5.00000000E-01  5.00000000E-01
                       5.00000000E-01  5.00000000E-01  5.00000000E-01
           kptopt           3
         kptrlatt        2    0    0      0    2    0      0    0    2
          kptrlen      9.48013543E+00
P           mkmem           8
P          mkqmem           8
P          mk1mem           8
            natom           2
            nband           8
           ndtset           1
            ngfft          20      20      20
             nkpt           8
             nqpt           1
             nsym           1
           ntypat           1
              occ      2.000000  2.000000  2.000000  2.000000  0.000000  0.000000
                       0.000000  0.000000
        optdriver           1
              qpt      5.00000000E-01  5.00000000E-01  0.00000000E+00
            rfasr           1
          rfatpol           1       2
            rfdir           1       1       1
           rfphon           1
            rprim      0.0000000000E+00  5.0000000000E-01  5.0000000000E-01
                       5.0000000000E-01  0.0000000000E+00  5.0000000000E-01
                       5.0000000000E-01  5.0000000000E-01  0.0000000000E+00
          spgroup           1
           tolwfr      1.00000000E-16
            typat      1  1
              wtk        0.12500    0.12500    0.12500    0.12500    0.12500    0.12500
                         0.12500    0.12500
           xangst      0.0000000000E+00  0.0000000000E+00  0.0000000000E+00
                       8.8683062764E-01  8.8683062764E-01  8.8683062764E-01
            xcart      0.0000000000E+00  0.0000000000E+00  0.0000000000E+00
                       1.6758670125E+00  1.6758670125E+00  1.6758670125E+00
             xred      0.0000000000E+00  0.0000000000E+00  0.0000000000E+00
                       2.5000000000E-01  2.5000000000E-01  2.5000000000E-01
            znucl        6.00000

================================================================================

 chkinp: Checking input parameters for consistency, jdtset=   1.

================================================================================
== DATASET  1 ==================================================================
-   nproc =    1

 mkfilename : getwfk/=0, take file _WFK from output of DATASET  99.

 Exchange-correlation functional for the present dataset will be:
  LDA: new Teter (4/93) with spin-polarized option - ixc=1
 Citation for XC functional:
  S. Goedecker, M. Teter, J. Huetter, PRB 54, 1703 (1996)

 Real(R)+Recip(G) space primitive vectors, cartesian coordinates (Bohr,Bohr^-1):
 R(1)=  0.0000000  3.3517340  3.3517340  G(1)= -0.1491765  0.1491765  0.1491765
 R(2)=  3.3517340  0.0000000  3.3517340  G(2)=  0.1491765 -0.1491765  0.1491765
 R(3)=  3.3517340  3.3517340  0.0000000  G(3)=  0.1491765  0.1491765 -0.1491765
 Unit cell volume ucvol=  7.5307571E+01 bohr^3
 Angles (23,13,12)=  6.00000000E+01  6.00000000E+01  6.00000000E+01 degrees
 setup1 : take into account q-point for computing boxcut.

 getcut: wavevector=  0.5000  0.5000  0.0000  ngfft=  20  20  20
         ecut(hartree)=     20.000   => boxcut(ratio)=   1.99384

--- Pseudopotential description ------------------------------------------------
- pspini: atom type   1  psp file is /home/gonze/ABINIT/ABINITv7.10.4/trunk/7.10.4-private/tests/Psps_for_tests/6c.pspnc
- pspatm: opening atomic psp file    /home/gonze/ABINIT/ABINITv7.10.4/trunk/7.10.4-private/tests/Psps_for_tests/6c.pspnc
-  Troullier-Martins psp for element  C         Thu Oct 27 17:29:33 EDT 1994
-  6.00000   4.00000    940714                znucl, zion, pspdat
    1    1    1    1      2001   0.00000      pspcod,pspxc,lmax,lloc,mmax,r2well
    0  10.372  24.987    1   1.4850707        l,e99.0,e99.9,nproj,rcpsp
   0.00000000   0.00000000   0.00000000   0.00000000     rms, ekb1, ekb2, epsatm
    1  15.431  21.987    0   1.4850707        l,e99.0,e99.9,nproj,rcpsp
   0.00000000   0.00000000   0.00000000   0.00000000     rms, ekb1, ekb2, epsatm
    0.83985002509544    0.99012430797080    0.51184907750884   rchrg,fchrg,qchrg
 pspatm: epsatm=    0.92590353
         --- l  ekb(1:nproj) -->
             0    4.921466
 pspatm: atomic psp has been read  and splines computed

   1.48144565E+01                                ecore*ucvol(ha*bohr**3)
--------------------------------------------------------------------------------

-inwffil : will read wavefunctions from disk file t51o_DS99_WFK
- newkpt: read input wf with ikpt,npw=   1     166, make ikpt,npw=   1     331
- newkpt: read input wf with ikpt,npw=   2     166, make ikpt,npw=   2     332
- newkpt: read input wf with ikpt,npw=   3     166, make ikpt,npw=   3     332
- newkpt: read input wf with ikpt,npw=   4     163, make ikpt,npw=   4     326
- newkpt: read input wf with ikpt,npw=   5     166, make ikpt,npw=   5     332
- newkpt: read input wf with ikpt,npw=   6     163, make ikpt,npw=   6     326
- newkpt: read input wf with ikpt,npw=   7     163, make ikpt,npw=   7     326
- newkpt: read input wf with ikpt,npw=   8     166, make ikpt,npw=   8     332


 ==>  initialize data related to q vector <== 

 The list of irreducible perturbations for this q vector is:
    1)    idir= 1    ipert=   1
    2)    idir= 2    ipert=   1
    3)    idir= 3    ipert=   1
    4)    idir= 1    ipert=   2
    5)    idir= 2    ipert=   2
    6)    idir= 3    ipert=   2

================================================================================

--------------------------------------------------------------------------------
 Perturbation wavevector (in red.coord.)   0.500000  0.500000  0.000000
 Perturbation : displacement of atom   1   along direction   1
 The set of symmetries contains only one element for this perturbation.
 symkpt : not enough symmetry to change the number of k points.

--------------------------------------------------------------------------------

-inwffil : will read wavefunctions from disk file t51o_DS99_WFK
- newkpt: read input wf with ikpt,npw=   1     166, make ikpt,npw=   1     331
- newkpt: read input wf with ikpt,npw=   2     166, make ikpt,npw=   2     332
- newkpt: read input wf with ikpt,npw=   3     166, make ikpt,npw=   3     332
- newkpt: read input wf with ikpt,npw=   4     163, make ikpt,npw=   4     326
- newkpt: read input wf with ikpt,npw=   5     166, make ikpt,npw=   5     332
- newkpt: read input wf with ikpt,npw=   6     163, make ikpt,npw=   6     326
- newkpt: read input wf with ikpt,npw=   7     163, make ikpt,npw=   7     326
- newkpt: read input wf with ikpt,npw=   8     166, make ikpt,npw=   8     332

--------------------------------------------------------------------------------

-inwffil : will read wavefunctions from disk file t51i_DS1_WFQ
- newkpt: read input wf with ikpt,npw=   1     163, make ikpt,npw=   1     326
- newkpt: read input wf with ikpt,npw=   2     332, make ikpt,npw=   2     332
- newkpt: read input wf with ikpt,npw=   3     332, make ikpt,npw=   3     332
- newkpt: read input wf with ikpt,npw=   4     331, make ikpt,npw=   4     331
- newkpt: read input wf with ikpt,npw=   5     166, make ikpt,npw=   5     332
- newkpt: read input wf with ikpt,npw=   6     326, make ikpt,npw=   6     326
- newkpt: read input wf with ikpt,npw=   7     326, make ikpt,npw=   7     326
- newkpt: read input wf with ikpt,npw=   8     332, make ikpt,npw=   8     332

 Initialisation of the first-order wave-functions :
  ireadwf=   0
P newkpt: treating      8 bands with npw=     326 for ikpt=   1 by node    0
P newkpt: treating      8 bands with npw=     332 for ikpt=   2 by node    0
P newkpt: treating      8 bands with npw=     332 for ikpt=   3 by node    0
P newkpt: treating      8 bands with npw=     331 for ikpt=   4 by node    0
P newkpt: treating      8 bands with npw=     332 for ikpt=   5 by node    0
P newkpt: treating      8 bands with npw=     326 for ikpt=   6 by node    0
P newkpt: treating      8 bands with npw=     326 for ikpt=   7 by node    0
P newkpt: treating      8 bands with npw=     332 for ikpt=   8 by node    0


     iter   2DEtotal(Ha)        deltaE(Ha) residm    vres2
-ETOT  1   131.03001643917     -1.605E+02 2.451E+00 2.383E+05
 ETOT  2   56.936775995287     -7.409E+01 2.699E+00 7.574E+04
 ETOT  3   13.015485065528     -4.392E+01 4.092E-01 1.608E+03
 ETOT  4   11.765578295308     -1.250E+00 1.650E-02 1.118E+01
 ETOT  5   11.760454052453     -5.124E-03 2.911E-04 1.931E-02
 ETOT  6   11.760438592705     -1.546E-05 2.547E-05 1.026E-03
 ETOT  7   11.760438054953     -5.378E-07 8.483E-07 9.851E-05
 ETOT  8   11.760437989466     -6.549E-08 1.013E-07 2.782E-06
 ETOT  9   11.760437987381     -2.085E-09 3.885E-09 3.968E-09
 ETOT 10   11.760437987377     -3.354E-12 5.780E-10 1.190E-10
 ETOT 11   11.760437987378      5.684E-13 1.923E-11 2.260E-13
 ETOT 12   11.760437987377     -1.478E-12 2.904E-12 2.621E-15
 ETOT 13   11.760437987376     -6.821E-13 9.818E-14 4.913E-17
 ETOT 14   11.760437987377      1.535E-12 1.489E-14 2.142E-18
 ETOT 15   11.760437987377     -6.821E-13 5.146E-16 1.383E-20
 ETOT 16   11.760437987376     -3.411E-13 9.493E-17 1.576E-21

 At SCF step   16   max residual=  9.49E-17 < tolwfr=  1.00E-16 =>converged.
================================================================================

 ----iterations are completed or convergence reached----

 Mean square residual over all n,k,spin=   4.4997E-17; max=  9.4931E-17
   0.0000  0.0000  0.0000    1  9.49311E-17 kpt; spin; max resid(k); each band:
  7.42E-17 3.35E-17 1.52E-17 4.50E-17 9.49E-17 3.33E-17 2.14E-17 5.90E-17
   0.5000  0.0000  0.0000    1  7.95231E-17 kpt; spin; max resid(k); each band:
  6.24E-17 5.88E-17 5.19E-17 4.44E-17 3.91E-17 1.46E-17 2.26E-17 7.95E-17
   0.0000  0.5000  0.0000    1  7.89703E-17 kpt; spin; max resid(k); each band:
  8.98E-18 7.90E-17 3.89E-17 4.71E-17 3.26E-17 1.08E-17 1.38E-17 3.96E-17
   0.5000  0.5000  0.0000    1  9.44566E-17 kpt; spin; max resid(k); each band:
  4.16E-17 9.45E-17 7.68E-17 6.71E-17 5.78E-17 6.10E-17 9.39E-17 4.74E-17
   0.0000  0.0000  0.5000    1  7.64510E-17 kpt; spin; max resid(k); each band:
  9.14E-18 7.65E-17 5.98E-17 1.56E-17 1.62E-17 2.91E-17 1.72E-17 3.69E-17
   0.5000  0.0000  0.5000    1  7.77842E-17 kpt; spin; max resid(k); each band:
  7.78E-17 7.46E-17 5.46E-17 3.72E-17 1.18E-17 6.07E-18 5.88E-17 5.65E-17
   0.0000  0.5000  0.5000    1  8.38515E-17 kpt; spin; max resid(k); each band:
  8.39E-17 5.76E-17 4.77E-17 3.77E-17 4.98E-17 1.09E-17 4.30E-17 2.98E-17
   0.5000  0.5000  0.5000    1  6.66124E-17 kpt; spin; max resid(k); each band:
  5.68E-17 5.87E-17 1.63E-17 6.66E-17 2.72E-17 2.36E-17 2.44E-17 4.74E-17

 Thirteen components of 2nd-order total energy (hartree) are
 1,2,3: 0th-order hamiltonian combined with 1st-order wavefunctions
     kin0=   3.27067781E+02 eigvalue=  -2.01116026E+01  local=  -1.71983708E+02
 4,5,6: 1st-order hamiltonian combined with 1st and 0th-order wfs
 loc psp =  -2.42272976E+02  Hartree=   5.28730715E+01     xc=  -1.07663319E+01
 note that "loc psp" includes a xc core correction that could be resolved
 7,8,9: eventually, occupation + non-local contributions
    edocc=   1.47191233E+01     enl0=   8.79288442E+01   enl1=  -3.17181379E+02
 1-9 gives the relaxation energy (to be shifted if some occ is /=2.0)
   erelax=  -2.79727177E+02
 10,11,12 Non-relaxation  contributions : frozen-wavefunctions and Ewald
 fr.local=   6.55955891E+01 fr.nonlo=   1.81941247E+02  Ewald=   4.51637117E+01
 13,14 Frozen wf xc core corrections (1) and (2)
 frxc 1  =  -1.06811382E+01  frxc 2 =   9.46820546E+00
 Resulting in :
 2DEtotal=    0.1176043799E+02 Ha. Also 2DEtotal=    0.320017792436E+03 eV
    (2DErelax=   -2.7972717742E+02 Ha. 2DEnonrelax=    2.9148761541E+02 Ha)
    (  non-var. 2DEtotal :    1.1760437981E+01 Ha)


--------------------------------------------------------------------------------
 Perturbation wavevector (in red.coord.)   0.500000  0.500000  0.000000
 Perturbation : displacement of atom   1   along direction   2
 The set of symmetries contains only one element for this perturbation.
 symkpt : not enough symmetry to change the number of k points.

--------------------------------------------------------------------------------

-inwffil : will read wavefunctions from disk file t51o_DS99_WFK
- newkpt: read input wf with ikpt,npw=   1     166, make ikpt,npw=   1     331
- newkpt: read input wf with ikpt,npw=   2     166, make ikpt,npw=   2     332
- newkpt: read input wf with ikpt,npw=   3     166, make ikpt,npw=   3     332
- newkpt: read input wf with ikpt,npw=   4     163, make ikpt,npw=   4     326
- newkpt: read input wf with ikpt,npw=   5     166, make ikpt,npw=   5     332
- newkpt: read input wf with ikpt,npw=   6     163, make ikpt,npw=   6     326
- newkpt: read input wf with ikpt,npw=   7     163, make ikpt,npw=   7     326
- newkpt: read input wf with ikpt,npw=   8     166, make ikpt,npw=   8     332

--------------------------------------------------------------------------------

-inwffil : will read wavefunctions from disk file t51i_DS1_WFQ
- newkpt: read input wf with ikpt,npw=   1     163, make ikpt,npw=   1     326
- newkpt: read input wf with ikpt,npw=   2     332, make ikpt,npw=   2     332
- newkpt: read input wf with ikpt,npw=   3     332, make ikpt,npw=   3     332
- newkpt: read input wf with ikpt,npw=   4     331, make ikpt,npw=   4     331
- newkpt: read input wf with ikpt,npw=   5     166, make ikpt,npw=   5     332
- newkpt: read input wf with ikpt,npw=   6     326, make ikpt,npw=   6     326
- newkpt: read input wf with ikpt,npw=   7     326, make ikpt,npw=   7     326
- newkpt: read input wf with ikpt,npw=   8     332, make ikpt,npw=   8     332

 Initialisation of the first-order wave-functions :
  ireadwf=   0
P newkpt: treating      8 bands with npw=     326 for ikpt=   1 by node    0
P newkpt: treating      8 bands with npw=     332 for ikpt=   2 by node    0
P newkpt: treating      8 bands with npw=     332 for ikpt=   3 by node    0
P newkpt: treating      8 bands with npw=     331 for ikpt=   4 by node    0
P newkpt: treating      8 bands with npw=     332 for ikpt=   5 by node    0
P newkpt: treating      8 bands with npw=     326 for ikpt=   6 by node    0
P newkpt: treating      8 bands with npw=     326 for ikpt=   7 by node    0
P newkpt: treating      8 bands with npw=     332 for ikpt=   8 by node    0


     iter   2DEtotal(Ha)        deltaE(Ha) residm    vres2
-ETOT  1   131.10534331855     -1.604E+02 2.156E+00 2.384E+05
 ETOT  2   57.000187113870     -7.411E+01 2.685E+00 7.584E+04
 ETOT  3   13.014154936836     -4.399E+01 4.309E-01 1.606E+03
 ETOT  4   11.765571286716     -1.249E+00 1.169E-02 1.112E+01
 ETOT  5   11.760475420477     -5.096E-03 1.997E-04 1.913E-02
 ETOT  6   11.760460201176     -1.522E-05 1.063E-05 1.057E-03
 ETOT  7   11.760459650050     -5.511E-07 6.312E-07 1.132E-04
 ETOT  8   11.760459574738     -7.531E-08 5.768E-08 2.688E-06
 ETOT  9   11.760459572694     -2.044E-09 3.223E-09 3.679E-09
 ETOT 10   11.760459572691     -2.956E-12 3.470E-10 1.186E-10
 ETOT 11   11.760459572690     -5.116E-13 1.769E-11 1.963E-13
 ETOT 12   11.760459572691      1.307E-12 2.048E-12 2.024E-15
 ETOT 13   11.760459572690     -1.080E-12 1.031E-13 3.614E-17
 ETOT 14   11.760459572691      6.821E-13 1.260E-14 1.755E-18
 ETOT 15   11.760459572690     -7.958E-13 6.203E-16 8.905E-21
 ETOT 16   11.760459572690      2.274E-13 9.311E-17 1.098E-21

 At SCF step   16   max residual=  9.31E-17 < tolwfr=  1.00E-16 =>converged.
================================================================================

 ----iterations are completed or convergence reached----

 Mean square residual over all n,k,spin=   4.4109E-17; max=  9.3110E-17
   0.0000  0.0000  0.0000    1  7.27602E-17 kpt; spin; max resid(k); each band:
  7.28E-17 3.42E-17 1.44E-17 3.54E-17 1.46E-17 1.32E-17 1.85E-17 4.64E-17
   0.5000  0.0000  0.0000    1  7.83635E-17 kpt; spin; max resid(k); each band:
  8.50E-18 7.84E-17 4.54E-17 3.89E-17 3.20E-17 1.03E-17 1.31E-17 5.14E-17
   0.0000  0.5000  0.0000    1  8.80682E-17 kpt; spin; max resid(k); each band:
  6.15E-17 5.84E-17 4.09E-17 4.71E-17 3.74E-17 8.81E-17 2.20E-17 7.68E-17
   0.5000  0.5000  0.0000    1  9.31101E-17 kpt; spin; max resid(k); each band:
  4.13E-17 9.31E-17 6.65E-17 7.68E-17 5.83E-17 5.90E-17 7.95E-17 6.72E-17
   0.0000  0.0000  0.5000    1  7.68420E-17 kpt; spin; max resid(k); each band:
  8.88E-18 7.68E-17 6.25E-17 1.14E-17 1.93E-17 2.43E-17 1.54E-17 3.50E-17
   0.5000  0.0000  0.5000    1  8.18818E-17 kpt; spin; max resid(k); each band:
  8.19E-17 5.78E-17 5.07E-17 3.43E-17 3.95E-17 1.07E-17 3.31E-17 7.31E-17
   0.0000  0.5000  0.5000    1  8.10826E-17 kpt; spin; max resid(k); each band:
  7.74E-17 7.60E-17 4.90E-17 4.03E-17 1.14E-17 5.55E-18 8.11E-17 4.90E-17
   0.5000  0.5000  0.5000    1  5.88857E-17 kpt; spin; max resid(k); each band:
  5.60E-17 5.89E-17 1.86E-17 5.75E-17 3.00E-17 1.34E-17 2.30E-17 4.01E-17

 Thirteen components of 2nd-order total energy (hartree) are
 1,2,3: 0th-order hamiltonian combined with 1st-order wavefunctions
     kin0=   3.27067808E+02 eigvalue=  -2.01116103E+01  local=  -1.71983707E+02
 4,5,6: 1st-order hamiltonian combined with 1st and 0th-order wfs
 loc psp =  -2.42272926E+02  Hartree=   5.28730448E+01     xc=  -1.07663261E+01
 note that "loc psp" includes a xc core correction that could be resolved
 7,8,9: eventually, occupation + non-local contributions
    edocc=   1.47190794E+01     enl0=   8.79288669E+01   enl1=  -3.17181385E+02
 1-9 gives the relaxation energy (to be shifted if some occ is /=2.0)
   erelax=  -2.79727156E+02
 10,11,12 Non-relaxation  contributions : frozen-wavefunctions and Ewald
 fr.local=   6.55955892E+01 fr.nonlo=   1.81941247E+02  Ewald=   4.51637117E+01
 13,14 Frozen wf xc core corrections (1) and (2)
 frxc 1  =  -1.06811382E+01  frxc 2 =   9.46820547E+00
 Resulting in :
 2DEtotal=    0.1176045957E+02 Ha. Also 2DEtotal=    0.320018379802E+03 eV
    (2DErelax=   -2.7972715560E+02 Ha. 2DEnonrelax=    2.9148761517E+02 Ha)
    (  non-var. 2DEtotal :    1.1760459565E+01 Ha)


--------------------------------------------------------------------------------
 Perturbation wavevector (in red.coord.)   0.500000  0.500000  0.000000
 Perturbation : displacement of atom   1   along direction   3
 The set of symmetries contains only one element for this perturbation.
 symkpt : not enough symmetry to change the number of k points.

--------------------------------------------------------------------------------

-inwffil : will read wavefunctions from disk file t51o_DS99_WFK
- newkpt: read input wf with ikpt,npw=   1     166, make ikpt,npw=   1     331
- newkpt: read input wf with ikpt,npw=   2     166, make ikpt,npw=   2     332
- newkpt: read input wf with ikpt,npw=   3     166, make ikpt,npw=   3     332
- newkpt: read input wf with ikpt,npw=   4     163, make ikpt,npw=   4     326
- newkpt: read input wf with ikpt,npw=   5     166, make ikpt,npw=   5     332
- newkpt: read input wf with ikpt,npw=   6     163, make ikpt,npw=   6     326
- newkpt: read input wf with ikpt,npw=   7     163, make ikpt,npw=   7     326
- newkpt: read input wf with ikpt,npw=   8     166, make ikpt,npw=   8     332

--------------------------------------------------------------------------------

-inwffil : will read wavefunctions from disk file t51i_DS1_WFQ
- newkpt: read input wf with ikpt,npw=   1     163, make ikpt,npw=   1     326
- newkpt: read input wf with ikpt,npw=   2     332, make ikpt,npw=   2     332
- newkpt: read input wf with ikpt,npw=   3     332, make ikpt,npw=   3     332
- newkpt: read input wf with ikpt,npw=   4     331, make ikpt,npw=   4     331
- newkpt: read input wf with ikpt,npw=   5     166, make ikpt,npw=   5     332
- newkpt: read input wf with ikpt,npw=   6     326, make ikpt,npw=   6     326
- newkpt: read input wf with ikpt,npw=   7     326, make ikpt,npw=   7     326
- newkpt: read input wf with ikpt,npw=   8     332, make ikpt,npw=   8     332

 Initialisation of the first-order wave-functions :
  ireadwf=   0
P newkpt: treating      8 bands with npw=     326 for ikpt=   1 by node    0
P newkpt: treating      8 bands with npw=     332 for ikpt=   2 by node    0
P newkpt: treating      8 bands with npw=     332 for ikpt=   3 by node    0
P newkpt: treating      8 bands with npw=     331 for ikpt=   4 by node    0
P newkpt: treating      8 bands with npw=     332 for ikpt=   5 by node    0
P newkpt: treating      8 bands with npw=     326 for ikpt=   6 by node    0
P newkpt: treating      8 bands with npw=     326 for ikpt=   7 by node    0
P newkpt: treating      8 bands with npw=     332 for ikpt=   8 by node    0


     iter   2DEtotal(Ha)        deltaE(Ha) residm    vres2
-ETOT  1   45.913099110905     -2.301E+02 2.875E+00 4.758E+04
 ETOT  2   12.396426484639     -3.352E+01 1.092E+00 4.413E+03
 ETOT  3   8.5203018363704     -3.876E+00 5.516E-02 5.447E+00
 ETOT  4   8.5167564956120     -3.545E-03 7.177E-03 2.854E-02
 ETOT  5   8.5167393263472     -1.717E-05 3.107E-04 6.212E-03
 ETOT  6   8.5167352538240     -4.073E-06 2.953E-05 1.300E-04
 ETOT  7   8.5167351631916     -9.063E-08 1.408E-06 2.178E-08
 ETOT  8   8.5167351631750     -1.666E-11 1.521E-07 8.844E-10
 ETOT  9   8.5167351631752      2.274E-13 7.343E-09 7.166E-11
 ETOT 10   8.5167351631749     -2.842E-13 8.097E-10 6.142E-12
 ETOT 11   8.5167351631768      1.876E-12 3.973E-11 3.066E-14
 ETOT 12   8.5167351631750     -1.762E-12 4.391E-12 1.214E-15
 ETOT 13   8.5167351631752      2.274E-13 2.175E-13 7.272E-17
 ETOT 14   8.5167351631750     -2.842E-13 2.398E-14 2.038E-18
 ETOT 15   8.5167351631746     -3.979E-13 1.196E-15 1.576E-19
 ETOT 16   8.5167351631746      0.000E+00 1.313E-16 6.461E-22
 ETOT 17   8.5167351631746      0.000E+00 9.632E-17 6.551E-24

 At SCF step   17   max residual=  9.63E-17 < tolwfr=  1.00E-16 =>converged.
================================================================================

 ----iterations are completed or convergence reached----

 Mean square residual over all n,k,spin=   4.4989E-17; max=  9.6318E-17
   0.0000  0.0000  0.0000    1  6.77952E-17 kpt; spin; max resid(k); each band:
  6.78E-17 3.25E-17 8.33E-18 6.22E-17 4.52E-17 9.00E-18 4.45E-17 3.82E-17
   0.5000  0.0000  0.0000    1  9.25682E-17 kpt; spin; max resid(k); each band:
  2.07E-18 9.26E-17 2.32E-17 2.82E-17 6.33E-17 5.72E-17 1.14E-17 8.95E-17
   0.0000  0.5000  0.0000    1  9.08003E-17 kpt; spin; max resid(k); each band:
  2.16E-18 9.08E-17 2.02E-17 3.18E-17 6.84E-17 5.87E-17 1.14E-17 9.04E-17
   0.5000  0.5000  0.0000    1  5.07376E-17 kpt; spin; max resid(k); each band:
  5.07E-17 7.97E-18 5.07E-17 7.14E-18 9.18E-18 2.24E-17 3.34E-17 2.60E-17
   0.0000  0.0000  0.5000    1  7.52129E-17 kpt; spin; max resid(k); each band:
  6.31E-17 4.17E-17 7.06E-17 2.96E-17 1.47E-17 5.13E-17 3.00E-17 7.52E-17
   0.5000  0.0000  0.5000    1  9.39398E-17 kpt; spin; max resid(k); each band:
  7.49E-17 7.36E-17 2.95E-17 3.57E-17 9.39E-17 8.94E-18 8.18E-17 6.52E-17
   0.0000  0.5000  0.5000    1  9.63177E-17 kpt; spin; max resid(k); each band:
  7.88E-17 7.02E-17 3.17E-17 3.35E-17 9.58E-17 8.71E-18 9.63E-17 4.67E-17
   0.5000  0.5000  0.5000    1  7.17541E-17 kpt; spin; max resid(k); each band:
  7.18E-17 3.92E-17 2.90E-17 7.11E-17 5.23E-17 1.61E-17 3.03E-17 1.16E-17

 Thirteen components of 2nd-order total energy (hartree) are
 1,2,3: 0th-order hamiltonian combined with 1st-order wavefunctions
     kin0=   3.24088786E+02 eigvalue=  -1.94891435E+01  local=  -1.70366828E+02
 4,5,6: 1st-order hamiltonian combined with 1st and 0th-order wfs
 loc psp =  -2.09153973E+02  Hartree=   3.99636515E+01     xc=  -1.08307362E+01
 note that "loc psp" includes a xc core correction that could be resolved
 7,8,9: eventually, occupation + non-local contributions
    edocc=   1.69182600E+01     enl0=   8.71706268E+01   enl1=  -3.25755260E+02
 1-9 gives the relaxation energy (to be shifted if some occ is /=2.0)
   erelax=  -2.67454616E+02
 10,11,12 Non-relaxation  contributions : frozen-wavefunctions and Ewald
 fr.local=   6.55955892E+01 fr.nonlo=   1.81941247E+02  Ewald=   2.96474483E+01
 13,14 Frozen wf xc core corrections (1) and (2)
 frxc 1  =  -1.06811382E+01  frxc 2 =   9.46820548E+00
 Resulting in :
 2DEtotal=    0.8516735163E+01 Ha. Also 2DEtotal=    0.231752149759E+03 eV
    (2DErelax=   -2.6745461637E+02 Ha. 2DEnonrelax=    2.7597135154E+02 Ha)
    (  non-var. 2DEtotal :    8.5167351644E+00 Ha)


--------------------------------------------------------------------------------
 Perturbation wavevector (in red.coord.)   0.500000  0.500000  0.000000
 Perturbation : displacement of atom   2   along direction   1
 The set of symmetries contains only one element for this perturbation.
 symkpt : not enough symmetry to change the number of k points.

--------------------------------------------------------------------------------

-inwffil : will read wavefunctions from disk file t51o_DS99_WFK
- newkpt: read input wf with ikpt,npw=   1     166, make ikpt,npw=   1     331
- newkpt: read input wf with ikpt,npw=   2     166, make ikpt,npw=   2     332
- newkpt: read input wf with ikpt,npw=   3     166, make ikpt,npw=   3     332
- newkpt: read input wf with ikpt,npw=   4     163, make ikpt,npw=   4     326
- newkpt: read input wf with ikpt,npw=   5     166, make ikpt,npw=   5     332
- newkpt: read input wf with ikpt,npw=   6     163, make ikpt,npw=   6     326
- newkpt: read input wf with ikpt,npw=   7     163, make ikpt,npw=   7     326
- newkpt: read input wf with ikpt,npw=   8     166, make ikpt,npw=   8     332

--------------------------------------------------------------------------------

-inwffil : will read wavefunctions from disk file t51i_DS1_WFQ
- newkpt: read input wf with ikpt,npw=   1     163, make ikpt,npw=   1     326
- newkpt: read input wf with ikpt,npw=   2     332, make ikpt,npw=   2     332
- newkpt: read input wf with ikpt,npw=   3     332, make ikpt,npw=   3     332
- newkpt: read input wf with ikpt,npw=   4     331, make ikpt,npw=   4     331
- newkpt: read input wf with ikpt,npw=   5     166, make ikpt,npw=   5     332
- newkpt: read input wf with ikpt,npw=   6     326, make ikpt,npw=   6     326
- newkpt: read input wf with ikpt,npw=   7     326, make ikpt,npw=   7     326
- newkpt: read input wf with ikpt,npw=   8     332, make ikpt,npw=   8     332

 Initialisation of the first-order wave-functions :
  ireadwf=   0
P newkpt: treating      8 bands with npw=     326 for ikpt=   1 by node    0
P newkpt: treating      8 bands with npw=     332 for ikpt=   2 by node    0
P newkpt: treating      8 bands with npw=     332 for ikpt=   3 by node    0
P newkpt: treating      8 bands with npw=     331 for ikpt=   4 by node    0
P newkpt: treating      8 bands with npw=     332 for ikpt=   5 by node    0
P newkpt: treating      8 bands with npw=     326 for ikpt=   6 by node    0
P newkpt: treating      8 bands with npw=     326 for ikpt=   7 by node    0
P newkpt: treating      8 bands with npw=     332 for ikpt=   8 by node    0


     iter   2DEtotal(Ha)        deltaE(Ha) residm    vres2
-ETOT  1   131.03512775190     -1.605E+02 2.631E+00 2.384E+05
 ETOT  2   56.940000996306     -7.410E+01 2.699E+00 7.574E+04
 ETOT  3   13.015625565197     -4.392E+01 4.295E-01 1.608E+03
 ETOT  4   11.765573915623     -1.250E+00 1.328E-02 1.118E+01
 ETOT  5   11.760450620241     -5.123E-03 2.614E-04 1.933E-02
 ETOT  6   11.760435160514     -1.546E-05 1.066E-05 1.048E-03
 ETOT  7   11.760434613017     -5.475E-07 6.302E-07 1.076E-04
 ETOT  8   11.760434541458     -7.156E-08 5.768E-08 2.704E-06
 ETOT  9   11.760434539417     -2.041E-09 3.206E-09 3.821E-09
 ETOT 10   11.760434539411     -6.537E-12 3.476E-10 1.207E-10
 ETOT 11   11.760434539412      1.535E-12 1.759E-11 2.120E-13
 ETOT 12   11.760434539412     -5.684E-13 2.049E-12 2.355E-15
 ETOT 13   11.760434539412      5.684E-14 1.024E-13 4.230E-17
 ETOT 14   11.760434539412     -1.705E-13 1.260E-14 1.980E-18
 ETOT 15   11.760434539412     -5.684E-14 6.158E-16 8.567E-21
 ETOT 16   11.760434539411     -8.527E-13 9.803E-17 1.061E-21

 At SCF step   16   max residual=  9.80E-17 < tolwfr=  1.00E-16 =>converged.
================================================================================

 ----iterations are completed or convergence reached----

 Mean square residual over all n,k,spin=   4.6108E-17; max=  9.8029E-17
   0.0000  0.0000  0.0000    1  9.63876E-17 kpt; spin; max resid(k); each band:
  7.35E-17 3.32E-17 1.44E-17 4.43E-17 9.64E-17 3.18E-17 2.09E-17 4.87E-17
   0.5000  0.0000  0.0000    1  7.60920E-17 kpt; spin; max resid(k); each band:
  6.21E-17 5.78E-17 5.09E-17 4.33E-17 3.80E-17 1.33E-17 2.26E-17 7.61E-17
   0.0000  0.5000  0.0000    1  7.82243E-17 kpt; spin; max resid(k); each band:
  8.66E-18 7.82E-17 3.91E-17 4.65E-17 3.19E-17 9.72E-18 1.38E-17 4.65E-17
   0.5000  0.5000  0.0000    1  9.80287E-17 kpt; spin; max resid(k); each band:
  3.52E-17 9.80E-17 6.61E-17 7.58E-17 5.53E-17 6.30E-17 7.94E-17 7.18E-17
   0.0000  0.0000  0.5000    1  7.53230E-17 kpt; spin; max resid(k); each band:
  8.96E-18 7.53E-17 5.94E-17 1.49E-17 1.65E-17 2.78E-17 1.63E-17 3.52E-17
   0.5000  0.0000  0.5000    1  9.35376E-17 kpt; spin; max resid(k); each band:
  7.24E-17 7.90E-17 4.50E-17 4.98E-17 1.13E-17 9.35E-17 6.01E-17 2.59E-17
   0.0000  0.5000  0.5000    1  9.07268E-17 kpt; spin; max resid(k); each band:
  8.38E-17 5.59E-17 4.62E-17 3.87E-17 3.03E-17 1.16E-17 4.43E-17 9.07E-17
   0.5000  0.5000  0.5000    1  6.49116E-17 kpt; spin; max resid(k); each band:
  5.63E-17 5.87E-17 1.54E-17 6.49E-17 2.61E-17 2.40E-17 2.34E-17 4.28E-17

 Thirteen components of 2nd-order total energy (hartree) are
 1,2,3: 0th-order hamiltonian combined with 1st-order wavefunctions
     kin0=   3.27067766E+02 eigvalue=  -2.01116064E+01  local=  -1.71983686E+02
 4,5,6: 1st-order hamiltonian combined with 1st and 0th-order wfs
 loc psp =  -2.42272924E+02  Hartree=   5.28730557E+01     xc=  -1.07663301E+01
 note that "loc psp" includes a xc core correction that could be resolved
 7,8,9: eventually, occupation + non-local contributions
    edocc=   1.47191289E+01     enl0=   8.79288523E+01   enl1=  -3.17181437E+02
 1-9 gives the relaxation energy (to be shifted if some occ is /=2.0)
   erelax=  -2.79727180E+02
 10,11,12 Non-relaxation  contributions : frozen-wavefunctions and Ewald
 fr.local=   6.55955890E+01 fr.nonlo=   1.81941247E+02  Ewald=   4.51637117E+01
 13,14 Frozen wf xc core corrections (1) and (2)
 frxc 1  =  -1.06811382E+01  frxc 2 =   9.46820547E+00
 Resulting in :
 2DEtotal=    0.1176043454E+02 Ha. Also 2DEtotal=    0.320017698612E+03 eV
    (2DErelax=   -2.7972718034E+02 Ha. 2DEnonrelax=    2.9148761488E+02 Ha)
    (  non-var. 2DEtotal :    1.1760434533E+01 Ha)


--------------------------------------------------------------------------------
 Perturbation wavevector (in red.coord.)   0.500000  0.500000  0.000000
 Perturbation : displacement of atom   2   along direction   2
 The set of symmetries contains only one element for this perturbation.
 symkpt : not enough symmetry to change the number of k points.

--------------------------------------------------------------------------------

-inwffil : will read wavefunctions from disk file t51o_DS99_WFK
- newkpt: read input wf with ikpt,npw=   1     166, make ikpt,npw=   1     331
- newkpt: read input wf with ikpt,npw=   2     166, make ikpt,npw=   2     332
- newkpt: read input wf with ikpt,npw=   3     166, make ikpt,npw=   3     332
- newkpt: read input wf with ikpt,npw=   4     163, make ikpt,npw=   4     326
- newkpt: read input wf with ikpt,npw=   5     166, make ikpt,npw=   5     332
- newkpt: read input wf with ikpt,npw=   6     163, make ikpt,npw=   6     326
- newkpt: read input wf with ikpt,npw=   7     163, make ikpt,npw=   7     326
- newkpt: read input wf with ikpt,npw=   8     166, make ikpt,npw=   8     332

--------------------------------------------------------------------------------

-inwffil : will read wavefunctions from disk file t51i_DS1_WFQ
- newkpt: read input wf with ikpt,npw=   1     163, make ikpt,npw=   1     326
- newkpt: read input wf with ikpt,npw=   2     332, make ikpt,npw=   2     332
- newkpt: read input wf with ikpt,npw=   3     332, make ikpt,npw=   3     332
- newkpt: read input wf with ikpt,npw=   4     331, make ikpt,npw=   4     331
- newkpt: read input wf with ikpt,npw=   5     166, make ikpt,npw=   5     332
- newkpt: read input wf with ikpt,npw=   6     326, make ikpt,npw=   6     326
- newkpt: read input wf with ikpt,npw=   7     326, make ikpt,npw=   7     326
- newkpt: read input wf with ikpt,npw=   8     332, make ikpt,npw=   8     332

 Initialisation of the first-order wave-functions :
  ireadwf=   0
P newkpt: treating      8 bands with npw=     326 for ikpt=   1 by node    0
P newkpt: treating      8 bands with npw=     332 for ikpt=   2 by node    0
P newkpt: treating      8 bands with npw=     332 for ikpt=   3 by node    0
P newkpt: treating      8 bands with npw=     331 for ikpt=   4 by node    0
P newkpt: treating      8 bands with npw=     332 for ikpt=   5 by node    0
P newkpt: treating      8 bands with npw=     326 for ikpt=   6 by node    0
P newkpt: treating      8 bands with npw=     326 for ikpt=   7 by node    0
P newkpt: treating      8 bands with npw=     332 for ikpt=   8 by node    0


     iter   2DEtotal(Ha)        deltaE(Ha) residm    vres2
-ETOT  1   131.11082577522     -1.604E+02 2.671E+00 2.384E+05
 ETOT  2   57.005152056767     -7.411E+01 2.380E+00 7.584E+04
 ETOT  3   13.014410167616     -4.399E+01 4.007E-01 1.606E+03
 ETOT  4   11.765563939901     -1.249E+00 1.655E-02 1.112E+01
 ETOT  5   11.760467954565     -5.096E-03 3.425E-04 1.912E-02
 ETOT  6   11.760452736385     -1.522E-05 2.571E-05 1.051E-03
 ETOT  7   11.760452187785     -5.486E-07 8.407E-07 1.123E-04
 ETOT  8   11.760452113030     -7.476E-08 1.021E-07 2.700E-06
 ETOT  9   11.760452110980     -2.049E-09 3.818E-09 3.681E-09
 ETOT 10   11.760452110977     -3.070E-12 5.765E-10 1.181E-10
 ETOT 11   11.760452110975     -2.387E-12 1.873E-11 1.823E-13
 ETOT 12   11.760452110975      1.137E-13 2.873E-12 1.768E-15
 ETOT 13   11.760452110975      4.547E-13 9.484E-14 3.220E-17
 ETOT 14   11.760452110976      2.842E-13 1.461E-14 1.445E-18
 ETOT 15   11.760452110975     -9.663E-13 4.931E-16 6.462E-21
 ETOT 16   11.760452110975      5.684E-14 9.659E-17 8.293E-22

 At SCF step   16   max residual=  9.66E-17 < tolwfr=  1.00E-16 =>converged.
================================================================================

 ----iterations are completed or convergence reached----

 Mean square residual over all n,k,spin=   4.2865E-17; max=  9.6594E-17
   0.0000  0.0000  0.0000    1  7.24975E-17 kpt; spin; max resid(k); each band:
  7.25E-17 3.29E-17 1.37E-17 3.45E-17 1.40E-17 1.25E-17 1.75E-17 4.85E-17
   0.5000  0.0000  0.0000    1  7.73262E-17 kpt; spin; max resid(k); each band:
  8.37E-18 7.73E-17 4.53E-17 3.90E-17 3.15E-17 1.03E-17 1.30E-17 5.00E-17
   0.0000  0.5000  0.0000    1  8.70028E-17 kpt; spin; max resid(k); each band:
  5.99E-17 5.77E-17 3.98E-17 4.69E-17 3.57E-17 8.70E-17 2.11E-17 7.42E-17
   0.5000  0.5000  0.0000    1  9.55811E-17 kpt; spin; max resid(k); each band:
  3.46E-17 9.56E-17 7.69E-17 6.50E-17 5.50E-17 6.21E-17 9.09E-17 4.74E-17
   0.0000  0.0000  0.5000    1  7.66089E-17 kpt; spin; max resid(k); each band:
  8.63E-18 7.66E-17 6.01E-17 1.05E-17 1.88E-17 2.27E-17 1.46E-17 3.41E-17
   0.5000  0.0000  0.5000    1  8.26245E-17 kpt; spin; max resid(k); each band:
  8.26E-17 5.38E-17 4.09E-17 3.89E-17 3.59E-17 1.06E-17 4.42E-17 5.80E-17
   0.0000  0.5000  0.5000    1  9.65944E-17 kpt; spin; max resid(k); each band:
  7.45E-17 7.62E-17 4.59E-17 4.17E-17 5.30E-18 5.23E-18 2.48E-17 9.66E-17
   0.5000  0.5000  0.5000    1  5.76998E-17 kpt; spin; max resid(k); each band:
  5.60E-17 5.77E-17 1.80E-17 5.57E-17 2.96E-17 1.35E-17 2.27E-17 3.86E-17

 Thirteen components of 2nd-order total energy (hartree) are
 1,2,3: 0th-order hamiltonian combined with 1st-order wavefunctions
     kin0=   3.27067790E+02 eigvalue=  -2.01116022E+01  local=  -1.71983674E+02
 4,5,6: 1st-order hamiltonian combined with 1st and 0th-order wfs
 loc psp =  -2.42272950E+02  Hartree=   5.28730632E+01     xc=  -1.07663293E+01
 note that "loc psp" includes a xc core correction that could be resolved
 7,8,9: eventually, occupation + non-local contributions
    edocc=   1.47191160E+01     enl0=   8.79287991E+01   enl1=  -3.17181376E+02
 1-9 gives the relaxation energy (to be shifted if some occ is /=2.0)
   erelax=  -2.79727163E+02
 10,11,12 Non-relaxation  contributions : frozen-wavefunctions and Ewald
 fr.local=   6.55955891E+01 fr.nonlo=   1.81941247E+02  Ewald=   4.51637117E+01
 13,14 Frozen wf xc core corrections (1) and (2)
 frxc 1  =  -1.06811382E+01  frxc 2 =   9.46820547E+00
 Resulting in :
 2DEtotal=    0.1176045211E+02 Ha. Also 2DEtotal=    0.320018176759E+03 eV
    (2DErelax=   -2.7972716296E+02 Ha. 2DEnonrelax=    2.9148761507E+02 Ha)
    (  non-var. 2DEtotal :    1.1760452104E+01 Ha)


--------------------------------------------------------------------------------
 Perturbation wavevector (in red.coord.)   0.500000  0.500000  0.000000
 Perturbation : displacement of atom   2   along direction   3
 The set of symmetries contains only one element for this perturbation.
 symkpt : not enough symmetry to change the number of k points.

--------------------------------------------------------------------------------

-inwffil : will read wavefunctions from disk file t51o_DS99_WFK
- newkpt: read input wf with ikpt,npw=   1     166, make ikpt,npw=   1     331
- newkpt: read input wf with ikpt,npw=   2     166, make ikpt,npw=   2     332
- newkpt: read input wf with ikpt,npw=   3     166, make ikpt,npw=   3     332
- newkpt: read input wf with ikpt,npw=   4     163, make ikpt,npw=   4     326
- newkpt: read input wf with ikpt,npw=   5     166, make ikpt,npw=   5     332
- newkpt: read input wf with ikpt,npw=   6     163, make ikpt,npw=   6     326
- newkpt: read input wf with ikpt,npw=   7     163, make ikpt,npw=   7     326
- newkpt: read input wf with ikpt,npw=   8     166, make ikpt,npw=   8     332

--------------------------------------------------------------------------------

-inwffil : will read wavefunctions from disk file t51i_DS1_WFQ
- newkpt: read input wf with ikpt,npw=   1     163, make ikpt,npw=   1     326
- newkpt: read input wf with ikpt,npw=   2     332, make ikpt,npw=   2     332
- newkpt: read input wf with ikpt,npw=   3     332, make ikpt,npw=   3     332
- newkpt: read input wf with ikpt,npw=   4     331, make ikpt,npw=   4     331
- newkpt: read input wf with ikpt,npw=   5     166, make ikpt,npw=   5     332
- newkpt: read input wf with ikpt,npw=   6     326, make ikpt,npw=   6     326
- newkpt: read input wf with ikpt,npw=   7     326, make ikpt,npw=   7     326
- newkpt: read input wf with ikpt,npw=   8     332, make ikpt,npw=   8     332

 Initialisation of the first-order wave-functions :
  ireadwf=   0
P newkpt: treating      8 bands with npw=     326 for ikpt=   1 by node    0
P newkpt: treating      8 bands with npw=     332 for ikpt=   2 by node    0
P newkpt: treating      8 bands with npw=     332 for ikpt=   3 by node    0
P newkpt: treating      8 bands with npw=     331 for ikpt=   4 by node    0
P newkpt: treating      8 bands with npw=     332 for ikpt=   5 by node    0
P newkpt: treating      8 bands with npw=     326 for ikpt=   6 by node    0
P newkpt: treating      8 bands with npw=     326 for ikpt=   7 by node    0
P newkpt: treating      8 bands with npw=     332 for ikpt=   8 by node    0


     iter   2DEtotal(Ha)        deltaE(Ha) residm    vres2
-ETOT  1   45.912411815236     -2.301E+02 2.875E+00 4.758E+04
 ETOT  2   12.396318540034     -3.352E+01 1.092E+00 4.413E+03
 ETOT  3   8.5203046531637     -3.876E+00 5.513E-02 5.448E+00
 ETOT  4   8.5167584985637     -3.546E-03 7.180E-03 2.885E-02
 ETOT  5   8.5167412166004     -1.728E-05 3.105E-04 6.358E-03
 ETOT  6   8.5167370444586     -4.172E-06 2.955E-05 1.283E-04
 ETOT  7   8.5167369549834     -8.948E-08 1.406E-06 2.169E-08
 ETOT  8   8.5167369549643     -1.916E-11 1.522E-07 7.912E-10
 ETOT  9   8.5167369549655      1.194E-12 7.334E-09 5.645E-11
 ETOT 10   8.5167369549655      0.000E+00 8.103E-10 5.681E-12
 ETOT 11   8.5167369549649     -5.684E-13 3.968E-11 7.842E-14
 ETOT 12   8.5167369549647     -2.274E-13 4.394E-12 3.272E-14
 ETOT 13   8.5167369549634     -1.251E-12 2.172E-13 3.724E-15
 ETOT 14   8.5167369549647      1.307E-12 2.399E-14 4.014E-17
 ETOT 15   8.5167369549654      6.253E-13 1.194E-15 4.358E-19
 ETOT 16   8.5167369549657      2.842E-13 1.313E-16 6.586E-21
 ETOT 17   8.5167369549654     -2.842E-13 9.234E-17 8.179E-22

 At SCF step   17   max residual=  9.23E-17 < tolwfr=  1.00E-16 =>converged.
================================================================================

 ----iterations are completed or convergence reached----

 Mean square residual over all n,k,spin=   4.4593E-17; max=  9.2345E-17
   0.0000  0.0000  0.0000    1  8.45061E-17 kpt; spin; max resid(k); each band:
  5.50E-17 2.90E-17 8.45E-17 5.42E-17 3.98E-17 8.34E-17 3.86E-17 3.35E-17
   0.5000  0.0000  0.0000    1  8.03601E-17 kpt; spin; max resid(k); each band:
  2.04E-18 7.31E-17 2.11E-17 2.59E-17 5.76E-17 5.18E-17 1.44E-17 8.04E-17
   0.0000  0.5000  0.0000    1  8.01845E-17 kpt; spin; max resid(k); each band:
  2.06E-18 7.15E-17 1.96E-17 3.06E-17 5.75E-17 5.49E-17 1.50E-17 8.02E-17
   0.5000  0.5000  0.0000    1  9.23450E-17 kpt; spin; max resid(k); each band:
  5.51E-17 9.23E-17 4.73E-17 8.53E-17 8.65E-18 2.81E-17 3.34E-17 2.68E-17
   0.0000  0.0000  0.5000    1  6.86398E-17 kpt; spin; max resid(k); each band:
  5.13E-17 3.66E-17 6.25E-17 2.78E-17 1.51E-17 4.50E-17 2.83E-17 6.86E-17
   0.5000  0.0000  0.5000    1  7.77796E-17 kpt; spin; max resid(k); each band:
  6.84E-17 5.78E-17 3.32E-17 2.90E-17 7.78E-17 1.08E-17 2.92E-17 4.88E-17
   0.0000  0.5000  0.5000    1  8.09841E-17 kpt; spin; max resid(k); each band:
  6.64E-17 6.01E-17 3.17E-17 3.05E-17 8.10E-17 9.86E-18 2.58E-17 5.12E-17
   0.5000  0.5000  0.5000    1  9.08236E-17 kpt; spin; max resid(k); each band:
  5.80E-17 3.45E-17 2.59E-17 6.26E-17 4.73E-17 1.70E-17 1.85E-17 9.08E-17

 Thirteen components of 2nd-order total energy (hartree) are
 1,2,3: 0th-order hamiltonian combined with 1st-order wavefunctions
     kin0=   3.24088798E+02 eigvalue=  -1.94891393E+01  local=  -1.70366840E+02
 4,5,6: 1st-order hamiltonian combined with 1st and 0th-order wfs
 loc psp =  -2.09154034E+02  Hartree=   3.99636616E+01     xc=  -1.08307380E+01
 note that "loc psp" includes a xc core correction that could be resolved
 7,8,9: eventually, occupation + non-local contributions
    edocc=   1.69182622E+01     enl0=   8.71706108E+01   enl1=  -3.25755195E+02
 1-9 gives the relaxation energy (to be shifted if some occ is /=2.0)
   erelax=  -2.67454614E+02
 10,11,12 Non-relaxation  contributions : frozen-wavefunctions and Ewald
 fr.local=   6.55955890E+01 fr.nonlo=   1.81941247E+02  Ewald=   2.96474483E+01
 13,14 Frozen wf xc core corrections (1) and (2)
 frxc 1  =  -1.06811382E+01  frxc 2 =   9.46820548E+00
 Resulting in :
 2DEtotal=    0.8516736955E+01 Ha. Also 2DEtotal=    0.231752198516E+03 eV
    (2DErelax=   -2.6745461444E+02 Ha. 2DEnonrelax=    2.7597135139E+02 Ha)
    (  non-var. 2DEtotal :    8.5167369572E+00 Ha)

 Components of second-order derivatives of the electronic energy, EIGR2D.
 For automatic tests, printing the matrix for the first k-point, first band, first atom.
   1   1   1   1   -3.4284929306E+00    0.0000000000E+00
   1   1   2   1   -2.3653484973E+00    8.6467214582E-07
   1   1   3   1   -1.1077859962E+00   -1.7180132228E-06
   2   1   1   1   -2.3653484973E+00   -8.6467214578E-07
   2   1   2   1   -3.4047101037E+00    0.0000000000E+00
   2   1   3   1   -1.0839974798E+00   -2.2666105616E-06
   3   1   1   1   -1.1077859962E+00    1.7180132229E-06
   3   1   2   1   -1.0839974798E+00    2.2666105617E-06
   3   1   3   1   -2.1917853164E+00    0.0000000000E+00
 
 Components of second-order derivatives of the electronic energy, EIGI2D.
 For automatic tests, printing the matrix for the first k-point, first band, first atom.
   1   1   1   1    2.8363855765E-03    0.0000000000E+00
   1   1   2   1    2.8310030858E-03   -8.0455333531E-10
   1   1   3   1    5.3830839825E-06    2.8534674450E-09
   2   1   1   1    2.8310030858E-03    8.0455333531E-10
   2   1   2   1    2.8363926971E-03    0.0000000000E+00
   2   1   3   1    5.3830821920E-06    2.8592295685E-09
   3   1   1   1    5.3830839825E-06   -2.8534674450E-09
   3   1   2   1    5.3830821920E-06   -2.8592295685E-09
   3   1   3   1    1.0772103806E-05    0.0000000000E+00
================================================================================

 ---- first-order wavefunction calculations are completed ----


 ==> Compute Derivative Database <==
  
  2nd-order matrix (non-cartesian coordinates, masses not included,
   asr not included )
     j1       j2             matrix element
  dir pert dir pert     real part     imaginary part
  
   1    1   1    1        11.7604379807         0.0000000000
   1    1   2    1         7.5020804604         0.0000073446
   1    1   3    1         4.2583642794        -0.0000040309
   1    1   1    2         0.0000057895         0.0000013129
   1    1   2    2        -2.2183698210        -0.0000036132
   1    1   3    2        -2.2183663285        -0.0000045545
  
   2    1   1    1         7.5020804625        -0.0000073446
   2    1   2    1        11.7604595653         0.0000000000
   2    1   3    1         4.2583724107        -0.0000139257
   2    1   1    2        -2.2183742484         0.0000037850
   2    1   2    2        -0.0000100329         0.0000043901
   2    1   3    2        -2.2183692988        -0.0000036787
  
   3    1   1    1         4.2583642765         0.0000040300
   3    1   2    1         4.2583724049         0.0000139247
   3    1   3    1         8.5167351644         0.0000000000
   3    1   1    2        -2.2183744628         0.0000016158
   3    1   2    2        -2.2183787570        -0.0000079534
   3    1   3    2        -4.4367382095        -0.0000063484
  
   1    2   1    1         0.0000057913        -0.0000013129
   1    2   2    1        -2.2183742471        -0.0000037850
   1    2   3    1        -2.2183744723        -0.0000016152
   1    2   1    2        11.7604345333         0.0000000000
   1    2   2    2         7.5020798427         0.0000051262
   1    2   3    2         4.2583634997        -0.0000011420
  
   2    2   1    1        -2.2183698188         0.0000036132
   2    2   2    1        -0.0000100356        -0.0000043901
   2    2   3    1        -2.2183787719         0.0000079540
   2    2   1    2         7.5020798491        -0.0000051262
   2    2   2    2        11.7604521037         0.0000000000
   2    2   3    2         4.2583733888        -0.0000087640
  
   3    2   1    1        -2.2183663194         0.0000045544
   3    2   2    1        -2.2183692834         0.0000036786
   3    2   3    1        -4.4367382096         0.0000063485
   3    2   1    2         4.2583634945         0.0000011421
   3    2   2    2         4.2583733813         0.0000087641
   3    2   3    2         8.5167369572         0.0000000000
  
  
  Dynamical matrix, in cartesian coordinates,
   if specified in the inputs, asr has been imposed
     j1       j2             matrix element
  dir pert dir pert     real part    imaginary part
  
   1    1   1    1         0.0000001257         0.0000002116
   1    1   2    1         0.1974670900         0.0000000319
   1    1   3    1         0.0000007186        -0.0000002139
   1    1   1    2        -0.0000001257        -0.0000002116
   1    1   2    2        -0.1974670900        -0.0000000319
   1    1   3    2        -0.0000007186         0.0000002139
  
   2    1   1    1         0.1974671490         0.0000004968
   2    1   2    1        -0.0000001976        -0.0000001753
   2    1   3    1        -0.0000000505         0.0000002134
   2    1   1    2        -0.1974671490        -0.0000004968
   2    1   2    2         0.0000001976         0.0000001753
   2    1   3    2         0.0000000505        -0.0000002134
  
   3    1   1    1         0.0000001006        -0.0000000748
   3    1   2    1        -0.0000002155         0.0000001587
   3    1   3    1        -0.0000000517        -0.0000003137
   3    1   1    2        -0.0000001006         0.0000000748
   3    1   2    2         0.0000002155        -0.0000001587
   3    1   3    2         0.0000000517         0.0000003137
  
   1    2   1    1        -0.0000001258         0.0000002116
   1    2   2    1        -0.1974671491         0.0000004968
   1    2   3    1        -0.0000001000        -0.0000000749
   1    2   1    2         0.0000001258        -0.0000002116
   1    2   2    2         0.1974671491        -0.0000004968
   1    2   3    2         0.0000001000         0.0000000749
  
   2    2   1    1        -0.1974670897         0.0000000319
   2    2   2    1         0.0000001975        -0.0000001753
   2    2   3    1         0.0000002160         0.0000001587
   2    2   1    2         0.1974670897        -0.0000000319
   2    2   2    2        -0.0000001975         0.0000001753
   2    2   3    2        -0.0000002160        -0.0000001587
  
   3    2   1    1        -0.0000007194        -0.0000002138
   3    2   2    1         0.0000000502         0.0000002134
   3    2   3    1         0.0000000518        -0.0000003137
   3    2   1    2         0.0000007194         0.0000002138
   3    2   2    2        -0.0000000502        -0.0000002134
   3    2   3    2        -0.0000000518         0.0000003137
 
  Phonon wavevector (reduced coordinates) :  0.50000  0.50000  0.00000
 Phonon energies in Hartree :
  -4.247103E-03 -5.060774E-06  0.000000E+00  0.000000E+00  4.569811E-06
   4.247102E-03
 Phonon energies in meV     :
- -1.155696E+02 -1.377107E-01  0.000000E+00  0.000000E+00  1.243509E-01
-  1.155695E+02
 Phonon frequencies in cm-1    :
- -9.321314E+02 -1.110711E+00  0.000000E+00  0.000000E+00  1.002958E+00
-  9.321312E+02
 Phonon frequencies in Thz     :
- -2.794460E+01 -3.329829E-02  0.000000E+00  0.000000E+00  3.006791E-02
-  2.794459E+01
 Phonon energies in Kelvin  :
- -1.341127E+03 -1.598064E+00  0.000000E+00  0.000000E+00  1.443030E+00
-  1.341127E+03
================================================================================

 ---- T=0 shift of eigenenergies due to electron-phonon interation at q ---- 
 Warning : the total shift must be computed through anaddb,                  
 here, only the contribution of one q point is printed.                      
 Print first the electronic eigenvalues, then the q-dependent Fan shift of eigenvalues.

 Eigenvalues (hartree) for nkpt=   8  k points:
 kpt#   1, nband=  8, wtk=  0.12500, kpt=  0.0000  0.0000  0.0000 (reduced coord)
  -0.31631   0.48327   0.48327   0.48327   0.68622   0.68622   0.68622   0.99279
 kpt#   2, nband=  8, wtk=  0.12500, kpt=  0.5000  0.0000  0.0000 (reduced coord)
  -0.09487  -0.02093   0.37797   0.37797   0.79181   0.79181   0.82076   1.05137
 kpt#   3, nband=  8, wtk=  0.12500, kpt=  0.0000  0.5000  0.0000 (reduced coord)
  -0.09487  -0.02093   0.37797   0.37797   0.79181   0.79181   0.82076   1.05137
 kpt#   4, nband=  8, wtk=  0.12500, kpt=  0.5000  0.5000  0.0000 (reduced coord)
   0.01154   0.01154   0.24526   0.24526   0.65072   0.65072   1.11343   1.11343
 kpt#   5, nband=  8, wtk=  0.12500, kpt=  0.0000  0.0000  0.5000 (reduced coord)
  -0.09487  -0.02093   0.37797   0.37797   0.79181   0.79181   0.82076   1.05137
 kpt#   6, nband=  8, wtk=  0.12500, kpt=  0.5000  0.0000  0.5000 (reduced coord)
   0.01154   0.01154   0.24526   0.24526   0.65072   0.65072   1.11343   1.11343
 kpt#   7, nband=  8, wtk=  0.12500, kpt=  0.0000  0.5000  0.5000 (reduced coord)
   0.01154   0.01154   0.24526   0.24526   0.65072   0.65072   1.11343   1.11343
 kpt#   8, nband=  8, wtk=  0.12500, kpt=  0.5000  0.5000  0.5000 (reduced coord)
  -0.09487  -0.02093   0.37797   0.37797   0.79181   0.79181   0.82076   1.05137
 Eigenvalues (   eV  ) for nkpt=   8  k points:
 kpt#   1, nband=  8, wtk=  0.12500, kpt=  0.0000  0.0000  0.0000 (reduced coord)
  -8.60718  13.15041  13.15041  13.15041  18.67296  18.67296  18.67296  27.01512
 kpt#   2, nband=  8, wtk=  0.12500, kpt=  0.5000  0.0000  0.0000 (reduced coord)
  -2.58156  -0.56961  10.28513  10.28513  21.54632  21.54632  22.33410  28.60917
 kpt#   3, nband=  8, wtk=  0.12500, kpt=  0.0000  0.5000  0.0000 (reduced coord)
  -2.58156  -0.56961  10.28513  10.28513  21.54632  21.54632  22.33410  28.60917
 kpt#   4, nband=  8, wtk=  0.12500, kpt=  0.5000  0.5000  0.0000 (reduced coord)
   0.31401   0.31401   6.67387   6.67387  17.70708  17.70708  30.29790  30.29790
 kpt#   5, nband=  8, wtk=  0.12500, kpt=  0.0000  0.0000  0.5000 (reduced coord)
  -2.58156  -0.56961  10.28513  10.28513  21.54632  21.54632  22.33410  28.60917
 kpt#   6, nband=  8, wtk=  0.12500, kpt=  0.5000  0.0000  0.5000 (reduced coord)
   0.31401   0.31401   6.67387   6.67387  17.70708  17.70708  30.29790  30.29790
 kpt#   7, nband=  8, wtk=  0.12500, kpt=  0.0000  0.5000  0.5000 (reduced coord)
   0.31401   0.31401   6.67387   6.67387  17.70708  17.70708  30.29790  30.29790
 kpt#   8, nband=  8, wtk=  0.12500, kpt=  0.5000  0.5000  0.5000 (reduced coord)
  -2.58156  -0.56961  10.28513  10.28513  21.54632  21.54632  22.33410  28.60917


 Fan corrections to eigenvalues at T=0 (hartree) for nkpt=   8  k points:
  (in case of degenerate eigenvalues, averaged derivative)
 kpt#   1, nband=  8, wtk=  0.12500, kpt=  0.0000  0.0000  0.0000 (reduced coord)
  -0.85467  -5.04364  -5.04364  -5.04364  -5.79759  -5.79759  -5.79759   0.08595
 kpt#   2, nband=  8, wtk=  0.12500, kpt=  0.5000  0.0000  0.0000 (reduced coord)
  -3.13397  -1.87084  -4.51640  -4.51640  -4.07956  -4.07956  -2.44674  -0.77723
 kpt#   3, nband=  8, wtk=  0.12500, kpt=  0.0000  0.5000  0.0000 (reduced coord)
  -2.81531  -2.23866  -3.53321  -3.53321  -2.73439  -2.73439  -1.49083  -0.89667
 kpt#   4, nband=  8, wtk=  0.12500, kpt=  0.5000  0.5000  0.0000 (reduced coord)
  -2.00650  -2.00650  -0.29226  -0.29226  -1.90969  -1.90969  -6.60685  -6.60685
 kpt#   5, nband=  8, wtk=  0.12500, kpt=  0.0000  0.0000  0.5000 (reduced coord)
  -2.65026  -2.06778  -4.28006  -4.28006  -5.09934  -5.09934  -3.81564  -1.68498
 kpt#   6, nband=  8, wtk=  0.12500, kpt=  0.5000  0.0000  0.5000 (reduced coord)
  -1.81920  -1.81920  -4.45282  -4.45282  -1.51967  -1.51967  -9.98113  -9.98113
 kpt#   7, nband=  8, wtk=  0.12500, kpt=  0.0000  0.5000  0.5000 (reduced coord)
  -1.78252  -1.78252  -3.77315  -3.77315  -1.59053  -1.59053  -8.69292  -8.69292
 kpt#   8, nband=  8, wtk=  0.12500, kpt=  0.5000  0.5000  0.5000 (reduced coord)
  -2.08577  -1.89450  -3.63394  -3.63394  -2.78597  -2.78597  -1.29019  -1.36458
 Fan corrections to eigenvalues at T=0 (   eV  ) for nkpt=   8  k points:
 kpt#   1, nband=  8, wtk=  0.12500, kpt=  0.0000  0.0000  0.0000 (reduced coord)
 -23.25665-137.24455-137.24455-137.24455-157.76035-157.76035-157.76035   2.33872
 kpt#   2, nband=  8, wtk=  0.12500, kpt=  0.5000  0.0000  0.0000 (reduced coord)
 -85.27973 -50.90811-122.89762-122.89762-111.01045-111.01045 -66.57919 -21.14958
 kpt#   3, nband=  8, wtk=  0.12500, kpt=  0.0000  0.5000  0.0000 (reduced coord)
 -76.60846 -60.91692 -96.14345 -96.14345 -74.40650 -74.40650 -40.56767 -24.39961
 kpt#   4, nband=  8, wtk=  0.12500, kpt=  0.5000  0.5000  0.0000 (reduced coord)
 -54.59953 -54.59953  -7.95288  -7.95288 -51.96528 -51.96528-179.78150-179.78150
 kpt#   5, nband=  8, wtk=  0.12500, kpt=  0.0000  0.0000  0.5000 (reduced coord)
 -72.11714 -56.26719-116.46630-116.46630-138.76023-138.76023-103.82895 -45.85055
 kpt#   6, nband=  8, wtk=  0.12500, kpt=  0.5000  0.0000  0.5000 (reduced coord)
 -49.50306 -49.50306-121.16742-121.16742 -41.35237 -41.35237-271.60048-271.60048
 kpt#   7, nband=  8, wtk=  0.12500, kpt=  0.0000  0.5000  0.5000 (reduced coord)
 -48.50472 -48.50472-102.67257-102.67257 -43.28056 -43.28056-236.54629-236.54629
 kpt#   8, nband=  8, wtk=  0.12500, kpt=  0.5000  0.5000  0.5000 (reduced coord)
 -56.75675 -51.55210 -98.88465 -98.88465 -75.81000 -75.81000 -35.10778 -37.13217

== END DATASET(S) ==============================================================
================================================================================
  
 -outvars: echo values of variables after computation  --------
            acell      6.7034680500E+00  6.7034680500E+00  6.7034680500E+00 Bohr
              amu      1.20110000E+01
           diemac      6.00000000E+00
             ecut      2.00000000E+01 Hartree
           ecutsm      5.00000000E-01 Hartree
    elph2_imagden      3.67493254E-03 Hartree
           enunit           2
           etotal1     8.5167369550E+00
            fcart1     0.0000000000E+00  0.0000000000E+00  0.0000000000E+00
                       0.0000000000E+00  0.0000000000E+00  0.0000000000E+00
-          fftalg         112
           getwfk          99
          ieig2rf           1
       irdwfkfine           1
           irdwfq           1
           istwfk        1    1    1    1    1    1    1    1
           jdtset        1
              kpt      0.00000000E+00  0.00000000E+00  0.00000000E+00
                       5.00000000E-01  0.00000000E+00  0.00000000E+00
                       0.00000000E+00  5.00000000E-01  0.00000000E+00
                       5.00000000E-01  5.00000000E-01  0.00000000E+00
                       0.00000000E+00  0.00000000E+00  5.00000000E-01
                       5.00000000E-01  0.00000000E+00  5.00000000E-01
                       0.00000000E+00  5.00000000E-01  5.00000000E-01
                       5.00000000E-01  5.00000000E-01  5.00000000E-01
           kptopt           3
         kptrlatt        2    0    0      0    2    0      0    0    2
          kptrlen      9.48013543E+00
P           mkmem           8
P          mkqmem           8
P          mk1mem           8
            natom           2
            nband           8
           ndtset           1
            ngfft          20      20      20
             nkpt           8
             nqpt           1
             nsym           1
           ntypat           1
              occ      2.000000  2.000000  2.000000  2.000000  0.000000  0.000000
                       0.000000  0.000000
        optdriver           1
              qpt      5.00000000E-01  5.00000000E-01  0.00000000E+00
            rfasr           1
          rfatpol           1       2
            rfdir           1       1       1
           rfphon           1
            rprim      0.0000000000E+00  5.0000000000E-01  5.0000000000E-01
                       5.0000000000E-01  0.0000000000E+00  5.0000000000E-01
                       5.0000000000E-01  5.0000000000E-01  0.0000000000E+00
          spgroup           1
           strten1     0.0000000000E+00  0.0000000000E+00  0.0000000000E+00
                       0.0000000000E+00  0.0000000000E+00  0.0000000000E+00
           tolwfr      1.00000000E-16
            typat      1  1
              wtk        0.12500    0.12500    0.12500    0.12500    0.12500    0.12500
                         0.12500    0.12500
           xangst      0.0000000000E+00  0.0000000000E+00  0.0000000000E+00
                       8.8683062764E-01  8.8683062764E-01  8.8683062764E-01
            xcart      0.0000000000E+00  0.0000000000E+00  0.0000000000E+00
                       1.6758670125E+00  1.6758670125E+00  1.6758670125E+00
             xred      0.0000000000E+00  0.0000000000E+00  0.0000000000E+00
                       2.5000000000E-01  2.5000000000E-01  2.5000000000E-01
            znucl        6.00000

================================================================================


- Timing analysis has been suppressed with timopt=0



================================================================================

 Suggested references for the acknowledgment of ABINIT usage.

 The users of ABINIT have little formal obligations with respect to the ABINIT group
 (those specified in the GNU General Public License, http://www.gnu.org/copyleft/gpl.txt).
 However, it is common practice in the scientific literature,
 to acknowledge the efforts of people that have made the research possible.
 In this spirit, please find below suggested citations of work written by ABINIT developers,
 corresponding to implementations inside of ABINIT that you have used in the present run.
 Note also that it will be of great value to readers of publications presenting these results,
 to read papers enabling them to understand the theoretical formalism and details
 of the ABINIT implementation.
 For information on why they are suggested, see also http://www.abinit.org/about/?text=acknowledgments.

 [1] First-principles responses of solids to atomic displacements and homogeneous electric fields:,
 implementation of a conjugate-gradient algorithm. X. Gonze, Phys. Rev. B55, 10337 (1997).
 Comment : Non-vanishing rfphon and/or rfelfd, in the norm-conserving case.

 [2] Dynamical matrices, Born effective charges, dielectric permittivity tensors, and ,
 interatomic force constants from density-functional perturbation theory,
 X. Gonze and C. Lee, Phys. Rev. B55, 10355 (1997).
 Comment : Non-vanishing rfphon and/or rfelfd, in the norm-conserving case.

 [3] ABINIT : First-principles approach of materials and nanosystem properties.
 X. Gonze, B. Amadon, P.-M. Anglade, J.-M. Beuken, F. Bottin, P. Boulanger, F. Bruneval,
 D. Caliste, R. Caracas, M. Cote, T. Deutsch, L. Genovese, Ph. Ghosez, M. Giantomassi
 S. Goedecker, D.R. Hamann, P. Hermet, F. Jollet, G. Jomard, S. Leroux, M. Mancini, S. Mazevet,
 M.J.T. Oliveira, G. Onida, Y. Pouillon, T. Rangel, G.-M. Rignanese, D. Sangalli, R. Shaltaf,
 M. Torrent, M.J. Verstraete, G. Zerah, J.W. Zwanziger
 Computer Phys. Comm. 180, 2582-2615 (2009).
 Comment : the third generic paper describing the ABINIT project.
 Note that a version of this paper, that is not formatted for Computer Phys. Comm. 
 is available at http://www.abinit.org/about/ABINIT_CPC_v10.pdf .
 The licence allows the authors to put it on the Web.

 [4] A brief introduction to the ABINIT software package.
 X. Gonze, G.-M. Rignanese, M. Verstraete, J.-M. Beuken, Y. Pouillon, R. Caracas, F. Jollet,
 M. Torrent, G. Zerah, M. Mikami, Ph. Ghosez, M. Veithen, J.-Y. Raty, V. Olevano, F. Bruneval,
 L. Reining, R. Godby, G. Onida, D.R. Hamann, and D.C. Allan.
 Z. Kristallogr. 220, 558-562 (2005).
 Comment : the second generic paper describing the ABINIT project. Note that this paper
 should be cited especially if you are using the GW part of ABINIT, as several authors
 of this part are not in the list of authors of the first or third paper.
 The .pdf of the latter paper is available at http://www.abinit.org/about/zfk_0505-06_558-562.pdf.
 Note that it should not redistributed (Copyright by Oldenburg Wissenshaftverlag,
 the licence allows the authors to put it on the Web).


 And optionally :

 [5] First-principles computation of material properties : the ABINIT software project. 
 X. Gonze, J.-M. Beuken, R. Caracas, F. Detraux, M. Fuchs, G.-M. Rignanese, L. Sindic,
 M. Verstraete, G. Zerah, F. Jollet, M. Torrent, A. Roy, M. Mikami, Ph. Ghosez, J.-Y. Raty, D.C. Allan.
 Computational Materials Science 25, 478-492 (2002). http://dx.doi.org/10.1016/S0927-0256(02)00325-7
 Comment : the original paper describing the ABINIT project.
-
- Proc.   0 individual time (sec): cpu=          7.7  wall=          7.7

================================================================================

 Calculation completed.
.Delivered   81 WARNINGs and   3 COMMENTs to log file.
+Overall time at end (sec) : cpu=          7.7  wall=          7.7
