
 **** DERIVATIVE DATABASE ****    
+DDB, Version number    100401

 C diamond EIGR2D file                                                                                                                                                                                                                                                   

    usepaw         0
     natom         2
      nkpt         8
    nsppol         1
      nsym         1
    ntypat         1
    occopt         1
     nband         8
     acell  0.67034680500000D+01  0.67034680500000D+01  0.67034680500000D+01
       amu  0.12011000000000D+02
   dilatmx  0.10000000000000D+01
      ecut  0.20000000000000D+02
    ecutsm  0.50000000000000D+00
     intxc         0
      iscf         7
       ixc         1
       kpt  0.00000000000000D+00  0.00000000000000D+00  0.00000000000000D+00
            0.50000000000000D+00  0.00000000000000D+00  0.00000000000000D+00
            0.00000000000000D+00  0.50000000000000D+00  0.00000000000000D+00
            0.50000000000000D+00  0.50000000000000D+00  0.00000000000000D+00
            0.00000000000000D+00  0.00000000000000D+00  0.50000000000000D+00
            0.50000000000000D+00  0.00000000000000D+00  0.50000000000000D+00
            0.00000000000000D+00  0.50000000000000D+00  0.50000000000000D+00
            0.50000000000000D+00  0.50000000000000D+00  0.50000000000000D+00
    kptnrm  0.10000000000000D+01
     ngfft        20   20   20
    nspden         1
   nspinor         1
       occ  0.20000000000000D+01  0.20000000000000D+01  0.20000000000000D+01
            0.20000000000000D+01  0.00000000000000D+00  0.00000000000000D+00
            0.00000000000000D+00  0.00000000000000D+00
     rprim  0.00000000000000D+00  0.50000000000000D+00  0.50000000000000D+00
            0.50000000000000D+00  0.00000000000000D+00  0.50000000000000D+00
            0.50000000000000D+00  0.50000000000000D+00  0.00000000000000D+00
     sciss  0.00000000000000D+00
    spinat  0.00000000000000D+00  0.00000000000000D+00  0.00000000000000D+00
            0.00000000000000D+00  0.00000000000000D+00  0.00000000000000D+00
    symafm         1
    symrel         1    0    0    0    1    0    0    0    1
     tnons  0.00000000000000D+00  0.00000000000000D+00  0.00000000000000D+00
    tolwfr  0.10000000000000D+01
   tphysel  0.00000000000000D+00
    tsmear  0.40000000000000D-01
     typat         1    1
       wtk  0.12500000000000D+00  0.12500000000000D+00  0.12500000000000D+00
            0.12500000000000D+00  0.12500000000000D+00  0.12500000000000D+00
            0.12500000000000D+00  0.12500000000000D+00
      xred  0.00000000000000D+00  0.00000000000000D+00  0.00000000000000D+00
            0.25000000000000D+00  0.25000000000000D+00  0.25000000000000D+00
     znucl  0.60000000000000D+01
      zion  0.40000000000000D+01
 
  Description of the potentials (KB energies)
  vrsio8 (for pseudopotentials)=100401
  usepaw =  0
  dimekb =  1       lmnmax=  1
  Atom type=    1   pspso=  0   nekb=   1
  iln lpsang iproj  ekb(:)
     1     0     1     4.9214663E+00
 
 **** Database of total energy derivatives ****
 Number of data blocks=    3
  
 2nd eigenvalue derivatives   - # elements :      36
 qpt  0.00000000E+00  0.00000000E+00  0.00000000E+00   1.0
 K-point:  0.00000000E+00  0.00000000E+00  0.00000000E+00
 Band:  1
   1   1   1   1 -0.20746320071353D+01  0.20491421059976D-16
   2   1   1   1 -0.10783938691120D+01  0.29757731648455D-16
   3   1   1   1 -0.10748758187184D+01  0.15501259043693D-15
   1   2   1   1  0.70264218174990D+00 -0.78112416144540D-16
   2   2   1   1  0.39546381626865D+00 -0.26916435409059D-15
   3   2   1   1  0.39381919439666D+00 -0.28345596900477D-15
   1   1   2   1 -0.10783938691120D+01  0.23476595020583D-16
   2   1   2   1 -0.20928385228910D+01  0.13227266504323D-16
   3   1   2   1 -0.10785249403345D+01  0.19236195373704D-15
   1   2   2   1  0.39546380480982D+00  0.13087080372453D-16
   2   2   2   1  0.72284330427143D+00 -0.11651763316568D-15
   3   2   2   1  0.39581515293329D+00 -0.21261737216857D-15
   1   1   3   1 -0.10748758187184D+01 -0.10123616268165D-15
   2   1   3   1 -0.10785249403345D+01 -0.13674238228853D-15
   3   1   3   1 -0.20539902598967D+01  0.25912431922404D-16
   1   2   3   1  0.39381952754068D+00  0.13409242795899D-16
   2   2   3   1  0.39581537374346D+00 -0.19844245053364D-15
   3   2   3   1  0.67511067843840D+00 -0.50779589422247D-15
   1   1   1   2  0.70264218174990D+00  0.88520757000400D-16
   2   1   1   2  0.39546380480982D+00 -0.23495421228313D-16
   3   1   1   2  0.39381952754068D+00 -0.16878689747852D-16
   1   2   1   2 -0.20746324283659D+01  0.15612511283791D-16
   2   2   1   2 -0.10783942080032D+01  0.11772411529190D-15
   3   2   1   2 -0.10748762146138D+01  0.16897328974400D-15
   1   1   2   2  0.39546381626865D+00  0.22406154371520D-15
   2   1   2   2  0.72284330427143D+00  0.10263984535786D-15
   3   1   2   2  0.39581537374346D+00  0.19150355662973D-15
   1   2   2   2 -0.10783942080032D+01 -0.35758431051991D-16
   2   2   2   2 -0.20928384240026D+01  0.15395670849294D-16
   3   2   2   2 -0.10785253202928D+01  0.14144202474336D-15
   1   1   3   2  0.39381919439666D+00  0.24876149948524D-15
   2   1   3   2  0.39581515293329D+00  0.20914792521662D-15
   3   1   3   2  0.67511067843840D+00  0.47310142470294D-15
   1   2   3   2 -0.10748762146138D+01 -0.71720354872047D-16
   2   2   3   2 -0.10785253202928D+01 -0.57307936158486D-16
   3   2   3   2 -0.20539902928293D+01  0.29165038439860D-16
 Band:  2
   1   1   1   1 -0.26515342512585D+02 -0.20816681711722D-15
   2   1   1   1 -0.25500116973030D+02  0.87245537203284D-15
   3   1   1   1 -0.21165752669519D+02  0.32779514592637D-14
   1   2   1   1 -0.88846662940119D+01  0.10077795051432D-13
   2   2   1   1 -0.59109938009494D+01  0.83423025352042D-14
   3   2   1   1 -0.56448154483035D+01  0.17359907665508D-13
   1   1   2   1 -0.25500116973030D+02 -0.11014388708618D-14
   2   1   2   1 -0.29891392309845D+02 -0.13877787807814D-15
   3   1   2   1 -0.23824951645652D+02  0.58060294251179D-14
   1   2   2   1 -0.59109938922835D+01  0.14773018210713D-13
   2   2   2   1 -0.11440180418156D+02  0.76439523679323D-14
   3   2   2   1 -0.58647194468411D+01  0.15518733185824D-13
   1   1   3   1 -0.21165752669519D+02 -0.32640736714559D-14
   2   1   3   1 -0.23824951645652D+02 -0.59309295153882D-14
   3   1   3   1 -0.24694152453825D+02  0.83266726846887D-16
   1   2   3   1 -0.56448155376186D+01  0.12752169652615D-13
   2   2   3   1 -0.58647196403848D+01  0.12054667770503D-13
   3   2   3   1 -0.79273766486751D+01  0.72721394511232D-14
   1   1   1   2 -0.88846662940119D+01 -0.10299839656357D-13
   2   1   1   2 -0.59109938922835D+01 -0.16688152928191D-13
   3   1   1   2 -0.56448155376186D+01 -0.10559479178980D-13
   1   2   1   2 -0.26515340528859D+02 -0.63143934525556D-15
   2   2   1   2 -0.25500114890491D+02  0.23799740768573D-14
   3   2   1   2 -0.21165750799789D+02 -0.10631428248324D-14
   1   1   2   2 -0.59109938009494D+01 -0.16724486371124D-13
   2   1   2   2 -0.11440180418156D+02 -0.77272190947792D-14
   3   1   2   2 -0.58647196403848D+01 -0.14136335941675D-13
   1   2   2   2 -0.25500114890491D+02 -0.18248625645447D-14
   2   2   2   2 -0.29891391384576D+02  0.62450045135165D-15
   3   2   2   2 -0.23824949714016D+02 -0.43249357629517D-15
   1   1   3   2 -0.56448154483035D+01 -0.12613704235236D-13
   2   1   3   2 -0.58647194468411D+01 -0.15879555668827D-13
   3   1   3   2 -0.79273766486751D+01 -0.51904712799510D-14
   1   2   3   2 -0.21165750799789D+02  0.12921263236613D-14
   2   2   3   2 -0.23824949714016D+02  0.14525109801695D-14
   3   2   3   2 -0.24694150481102D+02  0.90205620750794D-16
 Band:  3
   1   1   1   1 -0.12124757893903D+02 -0.26714741530043D-15
   2   1   1   1  0.72345120390361D+01  0.44033635803936D-14
   3   1   1   1 -0.11579249276333D+02 -0.42020628121800D-15
   1   2   1   1 -0.11777400342636D+02 -0.12555314254518D-14
   2   2   1   1 -0.49597958359668D+01 -0.44001382318763D-15
   3   2   1   1  0.22893752609964D+00  0.61093812013844D-15
   1   1   2   1  0.72345120390361D+01 -0.41526960381150D-14
   2   1   2   1 -0.68501308498970D+01 -0.20990154059319D-15
   3   1   2   1 -0.20404624630229D+01 -0.47499251746981D-14
   1   2   2   1 -0.49597961667702D+01  0.55744926650754D-14
   2   2   2   1 -0.12809096767978D+02  0.18643679773612D-14
   3   2   2   1 -0.20932166009240D+01  0.23258442652336D-14
   1   1   3   1 -0.11579249276333D+02  0.52775913672856D-15
   2   1   3   1 -0.20404624630229D+01  0.45343857828080D-14
   3   1   3   1 -0.13538675130667D+02 -0.46555641286528D-15
   1   2   3   1  0.22893744386675D+00  0.43760252590370D-15
   2   2   3   1 -0.20932166502329D+01 -0.38090536300809D-14
   3   2   3   1 -0.25287558777788D+01  0.33927375569235D-15
   1   1   1   2 -0.11777400342636D+02  0.11583869107971D-14
   2   1   1   2 -0.49597961667702D+01 -0.67818602043552D-14
   3   1   1   2  0.22893744386675D+00  0.46705576681820D-15
   1   2   1   2 -0.12124759050841D+02 -0.57245874707235D-16
   2   2   1   2  0.72345101199598D+01  0.41169638008843D-14
   3   2   1   2 -0.11579250039044D+02  0.18984536722812D-15
   1   1   2   2 -0.49597958359668D+01  0.94481835469689D-15
   2   1   2   2 -0.12809096767978D+02 -0.15243621760697D-14
   3   1   2   2 -0.20932166502329D+01  0.31810837317773D-14
   1   2   2   2  0.72345101199598D+01 -0.47848323391354D-14
   2   2   2   2 -0.68501353332734D+01  0.10581813203459D-15
   3   2   2   2 -0.20404631856784D+01 -0.29502397840994D-14
   1   1   3   2  0.22893752609964D+00 -0.12770719349135D-14
   2   1   3   2 -0.20932166009240D+01 -0.26927382804026D-14
   3   1   3   2 -0.25287558777788D+01 -0.47436534638404D-15
   1   2   3   2 -0.11579250039044D+02 -0.30433711664259D-15
   2   2   3   2 -0.20404631856784D+01  0.28387838007679D-14
   3   2   3   2 -0.13538675090218D+02 -0.74723213727701D-15
 Band:  4
   1   1   1   1 -0.91676666141754D+01 -0.76327832942980D-16
   2   1   1   1 -0.88632763325696D+01 -0.23362237834769D-15
   3   1   1   1  0.49942415236832D+01  0.16782302566488D-14
   1   2   1   1 -0.77096504846625D+01  0.70366660465893D-14
   2   2   1   1 -0.31596115849141D-01 -0.25674581715315D-14
   3   2   1   1 -0.48961884455996D+01  0.96707421386313D-16
   1   1   2   1 -0.88632763325696D+01  0.30984179107342D-15
   2   1   2   1 -0.11815672077281D+02 -0.44322184811207D-15
   3   1   2   1 -0.14476575832769D+01  0.73650020947006D-15
   1   2   2   1 -0.31596569188728D-01 -0.73682907323526D-15
   2   2   2   1 -0.33009163206906D+01  0.46208069765357D-14
   3   2   2   1 -0.27667530317177D+01 -0.10488267591371D-14
   1   1   3   1  0.49942415236832D+01 -0.83775673253807D-15
   2   1   3   1 -0.14476575832769D+01 -0.65279980175418D-15
   3   1   3   1 -0.83838476036525D+01 -0.65919492087119D-15
   1   2   3   1 -0.48961888780559D+01  0.54881670404160D-14
   2   2   3   1 -0.27667518617018D+01  0.26650831763754D-14
   3   2   3   1 -0.19208667037915D+02 -0.46890562229137D-14
   1   1   1   2 -0.77096504846625D+01 -0.70019715770698D-14
   2   1   1   2 -0.31596569188727D-01  0.59241334386019D-15
   3   1   1   2 -0.48961888780559D+01 -0.55228615099355D-14
   1   2   1   2 -0.91676668393282D+01 -0.40245584642662D-15
   2   2   1   2 -0.88632766500383D+01  0.14200675994010D-14
   3   2   1   2  0.49942406752513D+01  0.24314665280939D-14
   1   1   2   2 -0.31596115849141D-01  0.24481959325581D-14
   2   1   2   2 -0.33009163206906D+01 -0.46603803558314D-14
   3   1   2   2 -0.27667518617018D+01 -0.37197950497693D-14
   1   2   2   2 -0.88632766500383D+01 -0.17736259278485D-14
   2   2   2   2 -0.11815672473947D+02 -0.66374856999563D-15
   3   2   2   2 -0.14476585623512D+01  0.23409966835800D-14
   1   1   3   2 -0.48961884455996D+01  0.96494334591149D-15
   2   1   3   2 -0.27667530317177D+01  0.16984807008904D-14
   3   1   3   2 -0.19208667037915D+02  0.45034408109841D-14
   1   2   3   2  0.49942406752513D+01 -0.28889998448828D-14
   2   2   3   2 -0.14476585623512D+01 -0.26716783461880D-14
   3   2   3   2 -0.83838518017698D+01  0.14259426972529D-14
 Band:  5
   1   1   1   1 -0.20010658050234D+02 -0.39101751350690D-15
   2   1   1   1 -0.76091927684938D+01 -0.30101221381404D-15
   3   1   1   1 -0.33945099682338D+01 -0.91235882163827D-15
   1   2   1   1  0.66774959781595D+01 -0.19223963396292D-14
   2   2   1   1  0.16957588502234D+01  0.20334950521886D-17
   3   2   1   1  0.37445094723536D+01 -0.20591428869749D-15
   1   1   2   1 -0.76091927684938D+01  0.69765846359752D-17
   2   1   2   1 -0.15250664807876D+02 -0.65399075044326D-15
   3   1   2   1 -0.63115891894434D+01 -0.81125287731364D-15
   1   2   2   1  0.16957575494743D+01 -0.10089676332417D-14
   2   2   2   1  0.43178567250780D+01 -0.72096125538472D-15
   3   2   2   1  0.24301287572183D+01 -0.29305647794940D-15
   1   1   3   1 -0.33945099682338D+01  0.95485954679970D-15
   2   1   3   1 -0.63115891894434D+01  0.55277907939309D-15
   3   1   3   1 -0.40089804642956D+02 -0.89511731360403D-15
   1   2   3   1  0.37445113318896D+01  0.22633558781834D-14
   2   2   3   1  0.24301318430375D+01 -0.81807408469474D-15
   3   2   3   1  0.12649417660908D+02 -0.53451429807563D-14
   1   1   1   2  0.66774959781595D+01  0.23774359914214D-14
   2   1   1   2  0.16957575494743D+01  0.86281718039066D-15
   3   1   1   2  0.37445113318896D+01 -0.19545750994595D-14
   1   2   1   2 -0.20010660011396D+02 -0.15054147164961D-15
   2   2   1   2 -0.76091945357316D+01  0.54532554507762D-16
   3   2   1   2 -0.33945126404366D+01  0.21014678240204D-14
   1   1   2   2  0.16957588502234D+01  0.83800634818958D-15
   2   1   2   2  0.43178567250780D+01  0.14204884970724D-14
   3   1   2   2  0.24301318430375D+01  0.94991306886898D-15
   1   2   2   2 -0.76091945357316D+01 -0.46349361396929D-15
   2   2   2   2 -0.15250664659266D+02 -0.67524111302397D-15
   3   2   2   2 -0.63115923768575D+01 -0.79815367073439D-15
   1   1   3   2  0.37445094723536D+01 -0.15490819430569D-15
   2   1   3   2  0.24301287572183D+01  0.33576574612714D-17
   3   1   3   2  0.12649417660908D+02  0.53885110676557D-14
   1   2   3   2 -0.33945126404366D+01 -0.21474379961338D-14
   2   2   3   2 -0.63115923768575D+01 -0.19497551926234D-15
   3   2   3   2 -0.40089806582426D+02 -0.13877787807814D-15
 Band:  6
   1   1   1   1 -0.28948487312599D+02 -0.41980308118639D-15
   2   1   1   1 -0.95181779717681D+00 -0.42793663854379D-16
   3   1   1   1 -0.96790201857721D+01 -0.22872329470872D-15
   1   2   1   1  0.84086457922936D+01  0.15541838539432D-14
   2   2   1   1  0.34718371421015D+01  0.24365847076520D-14
   3   2   1   1  0.11972953491691D+01 -0.26550094904713D-15
   1   1   2   1 -0.95181779717681D+00 -0.22782319839800D-15
   2   1   2   1 -0.28165688716826D+02 -0.35561831257525D-15
   3   1   2   1 -0.50007161979594D+01 -0.34383403306230D-15
   1   2   2   1  0.34718372866227D+01  0.32143137447818D-14
   2   2   2   1  0.93835485478602D+01 -0.34909391096746D-14
   3   2   2   1  0.24220336716684D+01 -0.27451756187306D-14
   1   1   3   1 -0.96790201857721D+01 -0.76588037063198D-16
   2   1   3   1 -0.50007161979594D+01 -0.17051147756482D-15
   3   1   3   1 -0.15836768094947D+02 -0.68348104953486D-15
   1   2   3   1  0.11972953129079D+01 -0.43967305713103D-15
   2   2   3   1  0.24220331880515D+01 -0.25959384090485D-14
   3   2   3   1  0.40150012122816D+01 -0.17630467730500D-15
   1   1   1   2  0.84086457922936D+01 -0.48443876795355D-16
   2   1   1   2  0.34718372866227D+01 -0.19974052263841D-14
   3   1   1   2  0.11972953129079D+01  0.88549699045707D-15
   1   2   1   2 -0.28948489040788D+02 -0.26367796834847D-15
   2   2   1   2 -0.95181967107649D+00  0.18388428829695D-14
   3   2   1   2 -0.96790215097458D+01  0.28796503992416D-14
   1   1   2   2  0.34718371421015D+01 -0.17314196146674D-14
   2   1   2   2  0.93835485478602D+01  0.22111468652728D-14
   3   1   2   2  0.24220331880514D+01  0.31618919430859D-14
   1   2   2   2 -0.95181967107649D+00 -0.15265926572937D-14
   2   2   2   2 -0.28165689529863D+02 -0.15785983631389D-15
   3   2   2   2 -0.50007173898612D+01  0.14356614930898D-14
   1   1   3   2  0.11972953491691D+01  0.10721473653763D-14
   2   1   3   2  0.24220336716684D+01  0.33883243474490D-14
   3   1   3   2  0.40150012122816D+01  0.86759198248176D-15
   1   2   3   2 -0.96790215097458D+01 -0.31745533901576D-14
   2   2   3   2 -0.50007173898612D+01 -0.14183142583300D-14
   3   2   3   2 -0.15836768151350D+02 -0.86996382320237D-15
 Band:  7
   1   1   1   1 -0.43416778423122D+02 -0.94368957093138D-15
   2   1   1   1 -0.36572224519295D+02 -0.54067009472102D-14
   3   1   1   1 -0.32024155617248D+02 -0.81187825776611D-14
   1   2   1   1  0.90331079446023D+01  0.76439094614284D-14
   2   2   1   1  0.57872635503009D+01  0.20968928181590D-13
   3   2   1   1  0.59725323767633D+01  0.25775896937789D-13
   1   1   2   1 -0.36572224519295D+02  0.60728347619853D-14
   2   1   2   1 -0.48253382713694D+02  0.84654505627668D-15
   3   1   2   1 -0.33683991179001D+02  0.80342379860065D-15
   1   2   2   1  0.57872637584589D+01  0.13179070538585D-13
   2   2   2   1  0.96960983002160D+01  0.84827141695340D-14
   3   2   2   1  0.59651754684433D+01  0.14955051919473D-13
   1   1   3   1 -0.32024155617248D+02  0.72306041579609D-14
   2   1   3   1 -0.33683991179001D+02 -0.24137339238417D-15
   3   1   3   1 -0.37312659460305D+02 -0.10269562977783D-14
   1   2   3   1  0.59725335775523D+01  0.10929835163382D-13
   2   2   3   1  0.59651757423906D+01  0.18433659740509D-13
   3   2   3   1  0.83455241288236D+01  0.11090529259211D-13
   1   1   1   2  0.90331079446023D+01 -0.10086400115604D-13
   2   1   1   2  0.57872637584589D+01 -0.12630897920177D-13
   3   1   1   2  0.59725335775523D+01 -0.13073953379690D-13
   1   2   1   2 -0.43416778878732D+02 -0.13183898417424D-14
   2   2   1   2 -0.36572224680913D+02 -0.42984533827144D-14
   3   2   1   2 -0.32024155800047D+02 -0.55869404437732D-14
   1   1   2   2  0.57872635503009D+01 -0.21482406330479D-13
   2   1   2   2  0.96960983002160D+01 -0.79119901459376D-14
   3   1   2   2  0.59651757423906D+01 -0.20489307059542D-13
   1   2   2   2 -0.36572224680913D+02  0.26539355274884D-14
   2   2   2   2 -0.48253381196187D+02 -0.34694469519536D-15
   3   2   2   2 -0.33683991144116D+02 -0.16734470632750D-14
   1   1   3   2  0.59725323767633D+01 -0.24984863032744D-13
   2   1   3   2  0.59651754684433D+01 -0.18833893611757D-13
   3   1   3   2  0.83455241288236D+01 -0.16261739941098D-13
   1   2   3   2 -0.32024155800047D+02  0.65514466964163D-14
   2   2   3   2 -0.33683991144116D+02  0.26101977403025D-14
   3   2   3   2 -0.37312658481140D+02  0.13600232051658D-14
 Band:  8
   1   1   1   1 -0.56946996875994D+00  0.27755575615629D-16
   2   1   1   1  0.79184333073367D+00  0.35307894891601D-15
   3   1   1   1  0.58109325709504D+00  0.11139600750892D-14
   1   2   1   1 -0.26657770539406D+01  0.10018104197943D-14
   2   2   1   1 -0.25717016449356D+01 -0.23314495730573D-15
   3   2   1   1 -0.23491120479491D+01  0.37488038924351D-15
   1   1   2   1  0.79184333073367D+00 -0.13103434399098D-15
   2   1   2   1 -0.12387042792354D+00 -0.79797279894933D-16
   3   1   2   1  0.59632319119744D+00  0.11239208759790D-14
   1   2   2   1 -0.25717013429026D+01  0.67191319149156D-15
   2   2   2   1 -0.31839328214759D+01  0.98314108389941D-15
   3   2   2   1 -0.23760043725523D+01  0.11665290025405D-14
   1   1   3   1  0.58109325709504D+00 -0.96130440920320D-15
   2   1   3   1  0.59632319119744D+00 -0.79432341554338D-15
   3   1   3   1 -0.13832480305641D+01  0.34694469519536D-17
   1   2   3   1 -0.23491107800048D+01  0.15158644332308D-14
   2   2   3   1 -0.23760037856809D+01  0.16299335339740D-14
   3   2   3   1 -0.17634195336668D+01  0.26553740173243D-14
   1   1   1   2 -0.26657770539406D+01 -0.61323236117546D-15
   2   1   1   2 -0.25717013429026D+01 -0.86620222080096D-15
   3   1   1   2 -0.23491107800048D+01 -0.12938198283058D-14
   1   2   1   2 -0.56947319148481D+00 -0.17694179454963D-15
   2   2   1   2  0.79184078012050D+00 -0.68669923176866D-16
   3   2   1   2  0.58109117497661D+00  0.12397971868687D-15
   1   1   2   2 -0.25717016449356D+01  0.94367079227589D-16
   2   1   2   2 -0.31839328214759D+01 -0.92762993266815D-15
   3   1   2   2 -0.23760037856809D+01 -0.16854446852052D-14
   1   2   2   2  0.79184078012050D+00  0.38785904275660D-15
   2   2   2   2 -0.12387090527692D+00 -0.10408340855861D-15
   3   2   2   2  0.59632160973141D+00  0.82196953903889D-15
   1   1   3   2 -0.23491120479491D+01 -0.29161366239662D-15
   2   1   3   2 -0.23760043725523D+01 -0.11110178513093D-14
   3   1   3   2 -0.17634195336668D+01 -0.22112848074742D-14
   1   2   3   2  0.58109117497661D+00  0.63370416718623D-16
   2   2   3   2  0.59632160973140D+00 -0.22869411025482D-15
   3   2   3   2 -0.13832487071194D+01 -0.23939183968480D-15
 K-point:  5.00000000E-01  0.00000000E+00  0.00000000E+00
 Band:  1
   1   1   1   1 -0.64173226744396D+01 -0.17780915628762D-16
   2   1   1   1 -0.19986869997810D+01  0.32370861390513D-15
   3   1   1   1 -0.19722108533644D+01  0.12699371013749D-15
   1   2   1   1  0.21632555858298D+01 -0.97696769847727D-15
   2   2   1   1  0.95135017112682D+00 -0.14331412156458D-15
   3   2   1   1  0.92139323958540D+00 -0.74763102463345D-18
   1   1   2   1 -0.19986869997810D+01 -0.34972946604478D-15
   2   1   2   1 -0.39609936779491D+01  0.10408340855861D-16
   3   1   2   1 -0.20350698086183D+01  0.17302085972522D-15
   1   2   2   1  0.95134894909244D+00  0.10766564566631D-15
   2   2   2   1  0.18629986830873D+01  0.44615890091396D-15
   3   2   2   1  0.99104856467036D+00 -0.34188977995869D-15
   1   1   3   1 -0.19722108533644D+01 -0.23777663316869D-16
   2   1   3   1 -0.20350698086183D+01 -0.68937451166609D-16
   3   1   3   1 -0.38815651026573D+01  0.24286128663675D-16
   1   2   3   1  0.92139330402626D+00 -0.40316146792104D-15
   2   2   3   1  0.99104897654704D+00  0.42747024089656D-15
   3   2   3   1  0.17731304314028D+01  0.34542153052580D-15
   1   1   1   2  0.21632555858298D+01  0.98932760324360D-15
   2   1   1   2  0.95134894909244D+00 -0.84246878740619D-16
   3   1   1   2  0.92139330402626D+00  0.49683653562379D-15
   1   2   1   2 -0.64173252888738D+01 -0.12186432418737D-15
   2   2   1   2 -0.19986894991743D+01 -0.67751508763359D-15
   3   2   1   2 -0.19722127435416D+01 -0.69405164088724D-15
   1   1   2   2  0.95135017112682D+00  0.25607114750307D-15
   2   1   2   2  0.18629986830873D+01 -0.47738392348155D-15
   3   1   2   2  0.99104897654704D+00 -0.60094258849424D-15
   1   2   2   2 -0.19986894991743D+01  0.62807546856825D-15
   2   2   2   2 -0.39609934934488D+01  0.52041704279304D-17
   3   2   2   2 -0.20350705407699D+01  0.56538263280196D-15
   1   1   3   2  0.92139323958541D+00  0.68401846587729D-16
   2   1   3   2  0.99104856467036D+00  0.37311480252628D-15
   3   1   3   2  0.17731304314028D+01 -0.26562425063087D-15
   1   2   3   2 -0.19722127435416D+01  0.34840798829887D-15
   2   2   3   2 -0.20350705407699D+01 -0.51681037547461D-15
   3   2   3   2 -0.38815650789084D+01  0.48572257327351D-16
 Band:  2
   1   1   1   1 -0.15633467797287D+02 -0.10104764247565D-15
   2   1   1   1 -0.27404180044017D+01 -0.38479219320854D-15
   3   1   1   1 -0.27389915745236D+01 -0.44552862769302D-15
   1   2   1   1  0.29272196033981D+01 -0.40035735184445D-15
   2   2   1   1 -0.98700349834259D-01  0.21889280223760D-15
   3   2   1   1 -0.96717561590978D-01 -0.60657648353485D-16
   1   1   2   1 -0.27404180044017D+01  0.30152546636165D-15
   2   1   2   1 -0.54788021262854D+01 -0.14051260155412D-15
   3   1   2   1 -0.27424503365627D+01 -0.12466738835614D-15
   1   2   2   1 -0.98700856671327D-01 -0.72978732150783D-15
   2   2   2   1 -0.19483748622352D+00  0.10240097265790D-15
   3   2   2   1 -0.10126490960692D+00 -0.30720462528234D-16
   1   1   3   1 -0.27389915745236D+01  0.33277160175453D-15
   2   1   3   1 -0.27424503365627D+01  0.53543725841095D-16
   3   1   3   1 -0.54745231157654D+01 -0.13704315460217D-15
   1   2   3   1 -0.96717499051853D-01 -0.53625276960211D-15
   2   2   3   1 -0.10126466042255D+00 -0.62414219853936D-17
   3   2   3   1 -0.18888728404646D+00  0.32515254545075D-15
   1   1   1   2  0.29272196033981D+01  0.30418861914499D-15
   2   1   1   2 -0.98700856671327D-01  0.67774561722852D-15
   3   1   1   2 -0.96717499051852D-01  0.56053889826579D-15
   1   2   1   2 -0.15633467495914D+02  0.33512689151527D-15
   2   2   1   2 -0.27404176436338D+01  0.25417241295400D-15
   3   2   1   2 -0.27389911575324D+01  0.15210897432692D-14
   1   1   2   2 -0.98700349834259D-01 -0.20588237616777D-15
   2   1   2   2 -0.19483748622352D+00 -0.22036216902432D-15
   3   1   2   2 -0.10126466042255D+00 -0.80494751813447D-16
   1   2   2   2 -0.27404176436338D+01 -0.20560015562665D-15
   2   2   2   2 -0.54788019614765D+01 -0.21163626406917D-15
   3   2   2   2 -0.27424505906221D+01 -0.53332034892970D-16
   1   1   3   2 -0.96717561590978D-01 -0.22557172518269D-15
   2   1   3   2 -0.10126490960692D+00  0.17990668146224D-15
   3   1   3   2 -0.18888728404646D+00 -0.32862199240270D-15
   1   2   3   2 -0.27389911575324D+01 -0.12253193906151D-14
   2   2   3   2 -0.27424505906221D+01 -0.81976396233221D-16
   3   2   3   2 -0.54745231942373D+01 -0.16132928326584D-15
 Band:  3
   1   1   1   1 -0.20536613050241D+02  0.42153780466236D-15
   2   1   1   1 -0.18173664734171D+02 -0.26393095200254D-14
   3   1   1   1 -0.18291099873388D+02 -0.22897659166667D-14
   1   2   1   1 -0.45304988300739D+00  0.48420654073826D-14
   2   2   1   1 -0.46404609106480D+01  0.63276298913401D-14
   3   2   1   1 -0.85472699950714D-01  0.30551797740278D-14
   1   1   2   1 -0.18173664734171D+02  0.37477978211745D-14
   2   1   2   1 -0.26292415177726D+02 -0.90205620750794D-16
   3   1   2   1 -0.28181591909819D+02 -0.10012267314372D-13
   1   2   2   1 -0.46404617444867D+01 -0.10690733457070D-14
   2   2   2   1 -0.15234103012679D+02 -0.13789554074897D-14
   3   2   2   1 -0.30517398686320D+00  0.83333977981106D-14
   1   1   3   1 -0.18291099873388D+02  0.37053002730638D-14
   2   1   3   1 -0.28181591909819D+02  0.10619420530964D-13
   3   1   3   1 -0.26596973631501D+02  0.53776427755281D-16
   1   2   3   1 -0.85472476652801D-01 -0.36538192867261D-14
   2   2   3   1 -0.30517344916027D+00 -0.91050054913503D-14
   3   2   3   1 -0.27613267622446D+01  0.16638040042288D-14
   1   1   1   2 -0.45304988300739D+00 -0.29282317325112D-14
   2   1   1   2 -0.46404617444867D+01  0.60763690109717D-15
   3   1   1   2 -0.85472476652798D-01  0.44591646604483D-14
   1   2   1   2 -0.20536613053538D+02  0.17694179454963D-15
   2   2   1   2 -0.18173665124653D+02  0.18005822346327D-14
   3   2   1   2 -0.18291099473340D+02 -0.25193635152598D-14
   1   1   2   2 -0.46404609106480D+01 -0.52399582719026D-14
   2   1   2   2 -0.15234103012679D+02  0.12332386355076D-14
   3   1   2   2 -0.30517344916026D+00  0.10430334226997D-13
   1   2   2   2 -0.18173665124653D+02 -0.13651666421625D-14
   2   2   2   2 -0.26292417453045D+02 -0.44408920985006D-15
   3   2   2   2 -0.28181591103165D+02 -0.11055170873872D-13
   1   1   3   2 -0.85472699950713D-01 -0.13430077032387D-14
   2   1   3   2 -0.30517398686321D+00 -0.11886111476911D-13
   3   1   3   2 -0.27613267622446D+01 -0.19482986542890D-14
   1   2   3   2 -0.18291099473340D+02  0.33780516358683D-14
   2   2   3   2 -0.28181591103165D+02  0.10295361991394D-13
   3   2   3   2 -0.26596973042111D+02 -0.11796119636642D-15
 Band:  4
   1   1   1   1 -0.97999290833869D+01 -0.89771939881800D-16
   2   1   1   1  0.15373253457989D-01 -0.17773046550790D-14
   3   1   1   1 -0.11241612185665D+01 -0.57343470430573D-14
   1   2   1   1 -0.36175490996304D+01  0.36186202881993D-14
   2   2   1   1 -0.55062766913043D+01  0.14761540265374D-14
   3   2   1   1 -0.88459005129149D+01  0.65715622629764D-14
   1   1   2   1  0.15373253457988D-01  0.15376959749597D-14
   2   1   2   1 -0.66513090946010D+01 -0.17000290064573D-15
   3   1   2   1  0.11709729238873D+02 -0.38466295992474D-14
   1   2   2   1 -0.55062773427749D+01  0.22475278159621D-14
   2   2   2   1 -0.83529093627105D+01 -0.31709646638063D-14
   3   2   2   1 -0.11488332770450D+02  0.33561233019556D-14
   1   1   3   1 -0.11241612185665D+01  0.74158361923651D-14
   2   1   3   1  0.11709729238873D+02  0.39444246352056D-14
   3   1   3   1 -0.63467518891236D+01  0.80144224590128D-15
   1   2   3   1 -0.88459008694103D+01  0.25252109203345D-14
   2   2   3   1 -0.11488331673749D+02 -0.40141104688721D-14
   3   2   3   1 -0.20825685335586D+02 -0.15291082453893D-14
   1   1   1   2 -0.36175490996304D+01 -0.29944179924450D-14
   2   1   1   2 -0.55062773427749D+01 -0.22193927695861D-14
   3   1   1   2 -0.88459008694103D+01 -0.27496407700390D-14
   1   2   1   2 -0.97999289559181D+01 -0.37009241157793D-15
   2   2   1   2  0.15372462816911D-01  0.42843563531382D-14
   3   2   1   2 -0.11241620870905D+01  0.39983461783608D-14
   1   1   2   2 -0.55062766913043D+01 -0.10465931257987D-14
   2   1   2   2 -0.83529093627105D+01  0.28136116277551D-14
   3   1   2   2 -0.11488331673749D+02  0.36480838154410D-14
   1   2   2   2  0.15372462816913D-01 -0.44699988701221D-14
   2   2   2   2 -0.66513112227394D+01 -0.97144514654701D-16
   3   2   2   2  0.11709726665811D+02 -0.77695967314800D-14
   1   1   3   2 -0.88459005129149D+01 -0.64731167057147D-14
   2   1   3   2 -0.11488332770450D+02 -0.31427523144105D-14
   3   1   3   2 -0.20825685335586D+02  0.27538230194289D-14
   1   2   3   2 -0.11241620870906D+01 -0.43376472482401D-14
   2   2   3   2  0.11709726665811D+02  0.71294837688446D-14
   3   2   3   2 -0.63467556455772D+01 -0.80838113980519D-15
 Band:  5
   1   1   1   1  0.11709405619320D+02 -0.36429192995513D-15
   2   1   1   1  0.11672592846653D+02  0.55831334286211D-14
   3   1   1   1  0.27136897912981D+02 -0.11056146856584D-13
   1   2   1   1 -0.22430641317656D+02 -0.37817514204836D-14
   2   2   1   1 -0.14531609306716D+02 -0.78166417123045D-14
   3   2   1   1 -0.34522467800483D+02 -0.53539340078028D-14
   1   1   2   1  0.11672592846653D+02 -0.56165268555336D-14
   2   1   2   1 -0.22333780077564D+01 -0.22898349882894D-15
   3   1   2   1  0.23838088718739D+02 -0.14320215655327D-13
   1   2   2   1 -0.14531607800979D+02 -0.71307763197424D-15
   2   2   2   1 -0.88292015879893D+01 -0.46074384363406D-14
   3   2   2   1 -0.22331311574859D+02  0.41112748831865D-15
   1   1   3   1  0.27136897912981D+02  0.10932981489789D-13
   2   1   3   1  0.23838088718739D+02  0.13841431975957D-13
   3   1   3   1  0.30044533748707D+02  0.00000000000000D+00
   1   2   3   1 -0.34522470972663D+02 -0.13345244616954D-13
   2   2   3   1 -0.22331317022618D+02 -0.13581913256550D-13
   3   2   3   1 -0.55714443099501D+02 -0.25558918593792D-13
   1   1   1   2 -0.22430641317656D+02  0.36290957545977D-14
   2   1   1   2 -0.14531607800979D+02  0.78355077318580D-15
   3   1   1   2 -0.34522470972663D+02  0.13983189175245D-13
   1   2   1   2  0.11709413947225D+02 -0.67133798520302D-15
   2   2   1   2  0.11672600533195D+02  0.15536566351103D-14
   3   2   1   2  0.27136905222292D+02  0.29241291576934D-14
   1   1   2   2 -0.14531609306716D+02  0.79117262428315D-14
   2   1   2   2 -0.88292015879893D+01  0.53082667206352D-14
   3   1   2   2 -0.22331317022618D+02  0.13342521416866D-13
   1   2   2   2  0.11672600533195D+02 -0.16561137404102D-14
   2   2   2   2 -0.22333692528593D+01 -0.95409791178724D-16
   3   2   2   2  0.23838094979840D+02 -0.17683453290543D-14
   1   1   3   2 -0.34522467800483D+02  0.45485886340805D-14
   2   1   3   2 -0.22331311574859D+02 -0.40418859441474D-15
   3   1   3   2 -0.55714443099501D+02  0.25427079609618D-13
   1   2   3   2  0.27136905222292D+02 -0.32346446598932D-14
   2   2   3   2  0.23838094979840D+02  0.14266048042869D-14
   3   2   3   2  0.30044538784677D+02 -0.46490589156178D-15
 Band:  6
   1   1   1   1 -0.13392492113291D+02 -0.13183898417424D-15
   2   1   1   1 -0.41458849155753D+01  0.45234951428278D-14
   3   1   1   1 -0.14495434664452D+02 -0.86266314365760D-14
   1   2   1   1 -0.81349898828382D+01 -0.35112875498872D-14
   2   2   1   1 -0.18473607258147D+02 -0.84062668033798D-14
   3   2   1   1 -0.35868703884840D+01  0.27244520405875D-14
   1   1   2   1 -0.41458849155753D+01 -0.31201038507626D-14
   2   1   2   1  0.75308151390672D+01  0.93675067702748D-15
   3   1   2   1 -0.21189372354650D+02 -0.26135990952695D-13
   1   2   2   1 -0.18473607462404D+02 -0.57476406079527D-14
   2   2   2   1 -0.47453917064969D+02 -0.16377403956484D-13
   3   2   2   1 -0.58102469492730D+01  0.11545134875945D-13
   1   1   3   1 -0.14495434664452D+02  0.84687716002621D-14
   2   1   3   1 -0.21189372354650D+02  0.26816002555278D-13
   3   1   3   1 -0.24747099177456D+02 -0.40939474033053D-15
   1   2   3   1 -0.35868682198417D+01 -0.63097178365400D-14
   2   2   3   1 -0.58102451461860D+01 -0.25763004112920D-13
   3   2   3   1 -0.56867387546636D+00  0.27557162138178D-14
   1   1   1   2 -0.81349898828382D+01  0.21131004282499D-14
   2   1   1   2 -0.18473607462404D+02  0.54232473179451D-14
   3   1   1   2 -0.35868682198417D+01  0.53851102238444D-14
   1   2   1   2 -0.13392492888382D+02 -0.20816681711722D-15
   2   2   1   2 -0.41458860272516D+01 -0.72976433762055D-14
   3   2   1   2 -0.14495435287870D+02 -0.39247967889906D-14
   1   1   2   2 -0.18473607258147D+02  0.79829942752415D-14
   2   1   2   2 -0.47453917064969D+02  0.12116923099485D-13
   3   1   2   2 -0.58102451461860D+01  0.26567915805773D-13
   1   2   2   2 -0.41458860272516D+01  0.59619062997033D-14
   2   2   2   2  0.75308109244848D+01 -0.22065682614425D-14
   3   2   2   2 -0.21189370378184D+02 -0.71506722000295D-14
   1   1   3   2 -0.35868703884840D+01 -0.43576941932197D-14
   2   1   3   2 -0.58102469492730D+01 -0.12925974762822D-13
   3   1   3   2 -0.56867387546636D+00 -0.14616125007391D-14
   1   2   3   2 -0.14495435287870D+02  0.29871787502251D-14
   2   2   3   2 -0.21189370378184D+02  0.41634783743974D-14
   3   2   3   2 -0.24747098485444D+02 -0.12038980923279D-14
 Band:  7
   1   1   1   1 -0.63740113553295D+01  0.13877787807814D-15
   2   1   1   1 -0.62509915205020D+01  0.30833104327946D-14
   3   1   1   1 -0.40008320783558D+01  0.16195370900669D-14
   1   2   1   1  0.21708415353030D+01  0.71353429308807D-15
   2   2   1   1  0.53304610112663D+01 -0.23122760248575D-14
   3   2   1   1  0.31294428431458D+01 -0.10956886539259D-14
   1   1   2   1 -0.62509915205020D+01 -0.27918768888305D-14
   2   1   2   1 -0.10347205127960D+02 -0.11102230246252D-15
   3   1   2   1 -0.84057685319771D+01 -0.13106518569343D-14
   1   2   2   1  0.53304595478998D+01  0.20374331754494D-14
   2   2   2   1  0.85723959149645D+01  0.26894324186554D-15
   3   2   2   1  0.74189842734999D+01  0.10526434272233D-15
   1   1   3   1 -0.40008320783558D+01 -0.14946369997965D-14
   2   1   3   1 -0.84057685319771D+01  0.14494297350124D-14
   3   1   3   1 -0.35967279965584D+01 -0.55511151231258D-16
   1   2   3   1  0.31294438687731D+01  0.95070879492467D-15
   2   2   3   1  0.74189860823629D+01 -0.21052223748263D-14
   3   2   3   1  0.19693440567013D+01  0.79990438733389D-15
   1   1   1   2  0.21708415353030D+01 -0.25556729543019D-15
   2   1   1   2  0.53304595478998D+01 -0.17876329949087D-14
   3   1   1   2  0.31294438687731D+01 -0.67315303876838D-15
   1   2   1   2 -0.63740106070656D+01  0.30531133177192D-15
   2   2   1   2 -0.62509905485893D+01  0.31891818726104D-14
   3   2   1   2 -0.40008323106413D+01 -0.35811993986026D-15
   1   1   2   2  0.53304610112663D+01  0.25620762053982D-14
   2   1   2   2  0.85723959149645D+01  0.11963481675326D-15
   3   1   2   2  0.74189860823629D+01  0.20497112235950D-14
   1   2   2   2 -0.62509905485893D+01 -0.28144816017994D-14
   2   2   2   2 -0.10347204160062D+02 -0.22204460492503D-15
   3   2   2   2 -0.84057696351413D+01 -0.11935283801760D-14
   1   1   3   2  0.31294428431458D+01  0.13177332588509D-14
   2   1   3   2  0.74189842734999D+01 -0.71588700626616D-15
   3   1   3   2  0.19693440567013D+01 -0.91092668979640D-15
   1   2   3   2 -0.40008323106413D+01  0.52465339355403D-15
   2   2   3   2 -0.84057696351413D+01  0.17486398924886D-14
   3   2   3   2 -0.35967265386852D+01 -0.22204460492503D-15
 Band:  8
   1   1   1   1 -0.23686836744566D+02 -0.11518563880486D-14
   2   1   1   1 -0.57576773380699D+01 -0.21996362931824D-14
   3   1   1   1 -0.57934979160893D+01  0.32714351869452D-14
   1   2   1   1 -0.82253753672501D+01 -0.11148943281982D-15
   2   2   1   1  0.83706980080935D+00  0.82669516422051D-15
   3   2   1   1  0.80082945249534D+00  0.44894836987891D-14
   1   1   2   1 -0.57576773380699D+01  0.11449244197885D-14
   2   1   2   1 -0.11549415349632D+02 -0.10842021724855D-15
   3   1   2   1 -0.57236162571779D+01 -0.68416474499988D-15
   1   2   2   1  0.83707091577841D+00 -0.10905271418660D-14
   2   2   2   1  0.16395135264798D+01 -0.50681111068098D-15
   3   2   2   1  0.87169711789619D+00  0.62017524751447D-15
   1   1   3   1 -0.57934979160893D+01 -0.35281742613898D-14
   2   1   3   1 -0.57236162571779D+01  0.43176247924525D-15
   3   1   3   1 -0.11656864645429D+02 -0.74246164771807D-15
   1   2   3   1  0.80083878838250D+00  0.61000005175160D-14
   2   2   3   1  0.87169738284410D+00 -0.11664225579303D-14
   3   2   3   1  0.15308044586004D+01 -0.29237007633090D-15
   1   1   1   2 -0.82253753672502D+01 -0.20423023980795D-15
   2   1   1   2  0.83707091577840D+00  0.18260498956802D-14
   3   1   1   2  0.80083878838250D+00 -0.60826532827563D-14
   1   2   1   2 -0.23686836974326D+02  0.32751579226442D-14
   2   2   1   2 -0.57576777141283D+01 -0.23525659731155D-14
   3   2   1   2 -0.57934901417285D+01  0.87870123292524D-15
   1   1   2   2  0.83706980080935D+00 -0.40342263608217D-15
   2   1   2   2  0.16395135264798D+01  0.12353949705912D-14
   3   1   2   2  0.87169738284410D+00  0.43089980411616D-15
   1   2   2   2 -0.57576777141283D+01  0.28313496524851D-14
   2   2   2   2 -0.11549415879656D+02 -0.55164206536062D-15
   3   2   2   2 -0.57236169177390D+01 -0.63172693356115D-15
   1   1   3   2  0.80082945249534D+00  0.17277652391118D-14
   2   1   3   2  0.87169711789619D+00  0.11264097741092D-16
   3   1   3   2  0.15308044586004D+01 -0.26819043248828D-16
   1   2   3   2 -0.57934901417285D+01 -0.13644238061987D-14
   2   2   3   2 -0.57236169177390D+01 -0.44727106849642D-15
   3   2   3   2 -0.11656865170376D+02 -0.38857805861880D-15
 K-point:  0.00000000E+00  5.00000000E-01  0.00000000E+00
 Band:  1
   1   1   1   1 -0.39492145262344D+01 -0.10408340855861D-16
   2   1   1   1 -0.19968567961429D+01 -0.77355649428972D-15
   3   1   1   1 -0.20413569010690D+01  0.62347299809368D-17
   1   2   1   1  0.18503156269938D+01  0.15242665555171D-15
   2   2   1   1  0.94946475775462D+00  0.62716450600337D-15
   3   2   1   1  0.99807905985826D+00  0.37626663939451D-15
   1   1   2   1 -0.19968567961429D+01  0.10216219513544D-14
   2   1   2   1 -0.64194183353986D+01  0.16219664500383D-15
   3   1   2   1 -0.19803286510313D+01  0.89034672502392D-15
   1   2   2   1  0.94946516215947D+00 -0.58626934657352D-15
   2   2   2   1  0.21655980759142D+01 -0.34754915156210D-14
   3   2   2   1  0.93030833133931D+00  0.11116937600637D-15
   1   1   3   1 -0.20413569010690D+01  0.82236167293880D-16
   2   1   3   1 -0.19803286510313D+01 -0.89858666153481D-15
   3   1   3   1 -0.38996309398758D+01 -0.17347234759768D-16
   1   2   3   1  0.99807970903916D+00  0.36443067456070D-16
   2   2   3   1  0.93030807196171D+00  0.45195163105324D-16
   3   2   3   1  0.17928444294996D+01  0.17514592744371D-15
   1   1   1   2  0.18503156269938D+01 -0.16630444335953D-15
   2   1   1   2  0.94946516215947D+00  0.59494296395340D-15
   3   1   1   2  0.99807970903916D+00 -0.13011813515882D-15
   1   2   1   2 -0.39492155962017D+01  0.26020852139652D-16
   2   2   1   2 -0.19968583011786D+01 -0.97336326778596D-17
   3   2   1   2 -0.20413577576049D+01 -0.18514920991515D-15
   1   1   2   2  0.94946475775462D+00 -0.62803186774136D-15
   2   1   2   2  0.21655980759142D+01  0.34633484512892D-14
   3   1   2   2  0.93030807196171D+00  0.10312369409069D-15
   1   2   2   2 -0.19968583011786D+01  0.20445634285626D-15
   2   2   2   2 -0.64194195536629D+01  0.49005938196345D-16
   3   2   2   2 -0.19803307608220D+01 -0.28593335474257D-15
   1   1   3   2  0.99807905985826D+00 -0.33463327597107D-15
   2   1   3   2  0.93030833133931D+00 -0.73005459534883D-16
   3   1   3   2  0.17928444294996D+01 -0.22024873781911D-15
   1   2   3   2 -0.20413577576049D+01  0.26668121328606D-15
   2   2   3   2 -0.19803307608220D+01  0.31889310078613D-15
   3   2   3   2 -0.38996311007034D+01  0.34694469519536D-16
 Band:  2
   1   1   1   1 -0.54781351839998D+01 -0.93675067702748D-16
   2   1   1   1 -0.27403095016327D+01 -0.19174197971317D-15
   3   1   1   1 -0.27427931013410D+01 -0.95055686064052D-16
   1   2   1   1 -0.19402551237128D+00 -0.44894230403850D-15
   2   2   1   1 -0.98584067431914D-01 -0.62359055658829D-16
   3   2   1   1 -0.10172664697110D+00 -0.28838529951570D-15
   1   1   2   1 -0.27403095016327D+01  0.20301768230702D-15
   2   1   2   1 -0.15633582733104D+02 -0.24177708446427D-15
   3   1   2   1 -0.27394421807533D+01  0.34455524571439D-15
   1   2   2   1 -0.98584135516115D-01 -0.26282892343301D-15
   2   2   2   1  0.29270650040777D+01 -0.10711115780563D-16
   3   2   2   1 -0.97295437046192D-01 -0.37097583366634D-15
   1   1   3   1 -0.27427931013410D+01  0.46483428736701D-16
   2   1   3   1 -0.27394421807533D+01 -0.31333022314681D-15
   3   1   3   1 -0.54755326166064D+01 -0.13010426069826D-15
   1   2   3   1 -0.10172636221698D+00  0.37177888299547D-15
   2   2   3   1 -0.97295775377140D-01 -0.96229951888670D-15
   3   2   3   1 -0.19016047644843D+00 -0.73019042587411D-16
   1   1   1   2 -0.19402551237128D+00  0.10893650274705D-15
   2   1   1   2 -0.98584135516114D-01  0.42519041983957D-16
   3   1   1   2 -0.10172636221698D+00 -0.36483998909157D-15
   1   2   1   2 -0.54781350453921D+01 -0.36429192995513D-15
   2   2   1   2 -0.27403089803392D+01 -0.38722738484291D-15
   3   2   1   2 -0.27427932519847D+01 -0.21071791393044D-15
   1   1   2   2 -0.98584067431914D-01 -0.17963486923994D-15
   2   1   2   2  0.29270650040777D+01 -0.72611268064059D-15
   3   1   2   2 -0.97295775377139D-01  0.82178691733258D-15
   1   2   2   2 -0.27403089803392D+01  0.45835104735796D-15
   2   2   2   2 -0.15633579163253D+02  0.17054500173197D-15
   3   2   2   2 -0.27394418064341D+01  0.63900186184480D-15
   1   1   3   2 -0.10172664697110D+00  0.97565717158253D-16
   2   1   3   2 -0.97295437046192D-01  0.18709514521280D-15
   3   1   3   2 -0.19016047644843D+00  0.73019042587411D-16
   1   2   3   2 -0.27427932519847D+01 -0.39082266610218D-16
   2   2   3   2 -0.27394418064341D+01 -0.90094510671730D-15
   3   2   3   2 -0.54755324905513D+01 -0.30878077872387D-15
 Band:  3
   1   1   1   1 -0.27488412464232D+02 -0.11553258350006D-14
   2   1   1   1 -0.19554698524481D+02 -0.19362176044003D-16
   3   1   1   1 -0.31175899745373D+02  0.84859981702441D-14
   1   2   1   1 -0.12029207507527D+02  0.62276466540535D-14
   2   2   1   1 -0.27727266056969D+01 -0.95434384465185D-15
   3   2   1   1  0.17514051772575D+01 -0.13911434513812D-13
   1   1   2   1 -0.19554698524481D+02  0.25528456877685D-15
   2   1   2   1 -0.21528771867463D+02  0.14831885719602D-15
   3   1   2   1 -0.19895502353027D+02  0.13149473853779D-14
   1   2   2   1 -0.27727264390701D+01  0.35291620669200D-14
   2   2   2   1  0.29225555490545D+00 -0.57240218798343D-15
   3   2   2   1  0.19313432919724D+00 -0.71779893186744D-15
   1   1   3   1 -0.31175899745373D+02 -0.76108301766138D-14
   2   1   3   1 -0.19895502353027D+02  0.10043779020031D-14
   3   1   3   1 -0.28395283928107D+02  0.42847669856627D-15
   1   2   3   1  0.17514054561123D+01  0.32599179230981D-14
   2   2   3   1  0.19313392074316D+00 -0.34713503042366D-15
   3   2   3   1 -0.39096440566763D+01 -0.19031769375900D-14
   1   1   1   2 -0.12029207507527D+02 -0.33480056839320D-14
   2   1   1   2 -0.27727264390701D+01 -0.12910405400548D-15
   3   1   1   2  0.17514054561123D+01 -0.27256230924973D-14
   1   2   1   2 -0.27488412153957D+02 -0.88123952579622D-15
   2   2   1   2 -0.19554698469619D+02  0.35600490324360D-14
   3   2   1   2 -0.31175899212294D+02  0.10327225159426D-13
   1   1   2   2 -0.27727266056969D+01  0.20175124949911D-14
   2   1   2   2  0.29225555490545D+00  0.13287416235093D-14
   3   1   2   2  0.19313392074316D+00  0.75175928119525D-15
   1   2   2   2 -0.19554698469620D+02 -0.41047522038927D-14
   2   2   2   2 -0.21528771546323D+02  0.20296264668929D-15
   3   2   2   2 -0.19895502186961D+02  0.27566083653080D-14
   1   1   3   2  0.17514051772575D+01  0.15805752549579D-13
   2   1   3   2  0.19313432919725D+00  0.26901795240531D-14
   3   1   3   2 -0.39096440566763D+01  0.30029244578748D-15
   1   2   3   2 -0.31175899212294D+02 -0.98033386696815D-14
   2   2   3   2 -0.19895502186961D+02 -0.22639468981306D-14
   3   2   3   2 -0.28395283799031D+02  0.40245584642662D-15
 Band:  4
   1   1   1   1 -0.54553114045769D+01 -0.34174052476743D-15
   2   1   1   1  0.10185356979562D+01 -0.26010160126140D-14
   3   1   1   1  0.14704037833511D+02 -0.72621829459172D-14
   1   2   1   1 -0.11557806443919D+02  0.78350358314304D-14
   2   2   1   1 -0.70056710815706D+01 -0.79447468908547D-15
   3   2   1   1 -0.13544911553216D+02 -0.48956728091989D-14
   1   1   2   1  0.10185356979562D+01  0.26235132076931D-14
   2   1   2   1 -0.90052234028268D+01 -0.30902472421268D-15
   3   1   2   1  0.56193511670642D+00  0.66870946952654D-15
   1   2   2   1 -0.70056730265911D+01  0.19810723432175D-14
   2   2   2   1 -0.41713292307850D+01 -0.19425971475812D-14
   3   2   2   1 -0.92055595728968D+01 -0.69698137055016D-14
   1   1   3   1  0.14704037833511D+02  0.66394172180415D-14
   2   1   3   1  0.56193511670642D+00 -0.54023151208700D-15
   3   1   3   1 -0.45484397343608D+01  0.81532003370910D-15
   1   2   3   1 -0.13544912608013D+02  0.41421912690400D-14
   2   2   3   1 -0.92055578087773D+01 -0.63804074027602D-14
   3   2   3   1 -0.19677369073318D+02 -0.17686610984319D-13
   1   1   1   2 -0.11557806443919D+02 -0.86434169712356D-14
   2   1   1   2 -0.70056730265911D+01 -0.23358232940547D-14
   3   1   1   2 -0.13544912608013D+02 -0.38143285320804D-14
   1   2   1   2 -0.54553122323543D+01 -0.27755575615629D-15
   2   2   1   2  0.10185340508553D+01  0.54091287122166D-14
   3   2   1   2  0.14704035622474D+02  0.14537076426147D-13
   1   1   2   2 -0.70056710815706D+01  0.12699922094105D-14
   2   1   2   2 -0.41713292307850D+01  0.19616791058170D-14
   3   1   2   2 -0.92055578087773D+01  0.63515676249721D-14
   1   2   2   2  0.10185340508553D+01 -0.58266278637865D-14
   2   2   2   2 -0.90052244811222D+01 -0.80633470820463D-15
   3   2   2   2  0.56193192147359D+00 -0.32557055464638D-16
   1   1   3   2 -0.13544911553216D+02  0.60111000042520D-14
   2   1   3   2 -0.92055595728968D+01  0.85265111847563D-14
   3   1   3   2 -0.19677369073318D+02  0.18178405089758D-13
   1   2   3   2  0.14704035622474D+02 -0.15362804800712D-13
   2   2   3   2  0.56193192147359D+00 -0.51506668559421D-15
   3   2   3   2 -0.45484447926960D+01 -0.74940054162198D-15
 Band:  5
   1   1   1   1  0.42397411802645D+01 -0.13183898417424D-15
   2   1   1   1  0.17351183578888D+02  0.11064546252641D-13
   3   1   1   1  0.31046261143572D+02  0.15680142827751D-13
   1   2   1   1 -0.16668483024707D+02 -0.40817390615224D-14
   2   2   1   1 -0.20197433322898D+02 -0.90517038348312D-14
   3   2   1   1 -0.28390493451730D+02 -0.68558642241868D-14
   1   1   2   1  0.17351183578888D+02 -0.11228152360469D-13
   2   1   2   1  0.14805469779386D+02 -0.58492707205593D-15
   3   1   2   1  0.29706559716681D+02  0.52977341917710D-15
   1   2   2   1 -0.20197433535199D+02  0.39505325798483D-14
   2   2   2   1 -0.25091204398776D+02  0.12584531419268D-14
   3   2   2   1 -0.35877142301721D+02  0.11806476704751D-13
   1   1   3   1  0.31046261143572D+02 -0.15850145728396D-13
   2   1   3   1  0.29706559716681D+02 -0.66703341421377D-15
   3   1   3   1  0.30779585161783D+02  0.69388939039072D-15
   1   2   3   1 -0.28390497490536D+02  0.40255362479029D-14
   2   2   3   1 -0.35877146589677D+02  0.36967400796822D-15
   3   2   3   1 -0.53934340615222D+02  0.20206212740160D-13
   1   1   1   2 -0.16668483024707D+02  0.41788835761771D-14
   2   1   1   2 -0.20197433535199D+02 -0.32982765528810D-14
   3   1   1   2 -0.28390497490536D+02 -0.36092026136685D-14
   1   2   1   2  0.42397497345353D+01 -0.36776137690708D-15
   2   2   1   2  0.17351192918381D+02  0.14541835834171D-14
   3   2   1   2  0.31046269458017D+02 -0.66804532305945D-14
   1   1   2   2 -0.20197433322898D+02  0.85253236800894D-14
   2   1   2   2 -0.25091204398776D+02 -0.14165298186751D-14
   3   1   2   2 -0.35877146589677D+02 -0.21311521426131D-15
   1   2   2   2  0.17351192918381D+02 -0.12494862132519D-14
   2   2   2   2  0.14805480126568D+02 -0.42186306531411D-15
   3   2   2   2  0.29706568888884D+02 -0.11093110815491D-13
   1   1   3   2 -0.28390493451730D+02  0.63354471813938D-14
   2   1   3   2 -0.35877142301721D+02 -0.11923353698945D-13
   3   1   3   2 -0.53934340615222D+02 -0.18610267142262D-13
   1   2   3   2  0.31046269458017D+02  0.73223009167059D-14
   2   2   3   2  0.29706568888884D+02  0.11035214419480D-13
   3   2   3   2  0.30779592864961D+02  0.43021142204225D-15
 Band:  6
   1   1   1   1  0.10576945446820D+01  0.70776717819854D-15
   2   1   1   1 -0.86523223663290D+01 -0.11629013739627D-13
   3   1   1   1 -0.28397545502693D+02 -0.33916682034071D-13
   1   2   1   1 -0.39614634461538D+02  0.20776555478360D-13
   2   2   1   1 -0.13976727193578D+02  0.61487423472841D-14
   3   2   1   1  0.24893553351663D+00 -0.11981228263558D-13
   1   1   2   1 -0.86523223663290D+01  0.11722688807330D-13
   2   1   2   1 -0.15759900469868D+02 -0.45623227418190D-15
   3   1   2   1 -0.17144266261531D+02 -0.10859134308258D-13
   1   2   2   1 -0.13976727174842D+02 -0.29158207305777D-14
   2   2   2   1 -0.62014117994048D+01  0.54802083999597D-16
   3   2   2   1 -0.21537256702561D+01 -0.15337566834944D-14
   1   1   3   1 -0.28397545502693D+02  0.35276705239237D-13
   2   1   3   1 -0.17144266261531D+02  0.11455879183994D-13
   3   1   3   1 -0.25482151416807D+02  0.68434841127285D-15
   1   2   3   1  0.24893826521122D+00 -0.23360267864590D-13
   2   2   3   1 -0.21537236594598D+01 -0.45230889891920D-14
   3   2   3   1 -0.23487755640488D+01  0.10537131220261D-13
   1   1   1   2 -0.39614634461538D+02 -0.21692489473676D-13
   2   1   1   2 -0.13976727174842D+02  0.26625511030851D-14
   3   1   1   2  0.24893826521122D+00  0.23575373575611D-13
   1   2   1   2  0.10576928839282D+01  0.22551405187698D-15
   2   2   1   2 -0.86523240131345D+01  0.23547173478622D-14
   3   2   1   2 -0.28397546610091D+02  0.18011175537917D-13
   1   1   2   2 -0.13976727193578D+02 -0.84576592938092D-14
   2   1   2   2 -0.62014117994048D+01 -0.15726851254793D-14
   3   1   2   2 -0.21537236594598D+01  0.28664280696342D-14
   1   2   2   2 -0.86523240131345D+01 -0.28282968568039D-14
   2   2   2   2 -0.15759901753830D+02 -0.10633854907738D-14
   3   2   2   2 -0.17144267812074D+02  0.63682617607600D-14
   1   1   3   2  0.24893553351664D+00  0.86505591896827D-14
   2   1   3   2 -0.21537256702560D+01  0.90752150866681D-15
   3   1   3   2 -0.23487755640488D+01 -0.13267585971449D-13
   1   2   3   2 -0.28397546610091D+02 -0.17747497569568D-13
   2   2   3   2 -0.17144267812074D+02 -0.69355163374044D-14
   3   2   3   2 -0.25482151842263D+02  0.15265566588596D-15
 Band:  7
   1   1   1   1 -0.97580189326695D+01 -0.27755575615629D-15
   2   1   1   1 -0.62150424090461D+01 -0.39591624275102D-14
   3   1   1   1 -0.88871080434712D+01 -0.11723395101725D-14
   1   2   1   1  0.80045108513792D+01 -0.43384194329460D-15
   2   2   1   1  0.52977449065373D+01  0.14611668719805D-14
   3   2   1   1  0.78887261716531D+01  0.79813745499968D-15
   1   1   2   1 -0.62150424090461D+01  0.44032516373603D-14
   2   1   2   1 -0.65344574170862D+01  0.41633363423443D-15
   3   1   2   1 -0.45181204598215D+01  0.26886402366464D-14
   1   2   2   1  0.52977456471188D+01 -0.41129133122242D-14
   2   2   2   1  0.23274214405295D+01 -0.13214377424361D-14
   3   2   2   1  0.36318988092159D+01 -0.40553900439181D-15
   1   1   3   1 -0.88871080434712D+01  0.11723395101725D-14
   2   1   3   1 -0.45181204598215D+01 -0.19669952706401D-14
   3   1   3   1 -0.46672542229151D+01  0.55511151231258D-16
   1   2   3   1  0.78887261225631D+01 -0.32939140136614D-14
   2   2   3   1  0.36318988006673D+01 -0.53102165883230D-15
   3   2   3   1  0.30069711686374D+01 -0.10775305643036D-14
   1   1   1   2  0.80045108513792D+01  0.60037539698837D-15
   2   1   1   2  0.52977456471188D+01  0.47512915513837D-14
   3   1   1   2  0.78887261225631D+01  0.31273805599677D-14
   1   2   1   2 -0.97580156870884D+01 -0.24980018054066D-15
   2   2   1   2 -0.62150402295031D+01 -0.62875689895989D-15
   3   2   1   2 -0.88871072651935D+01 -0.16274298569260D-14
   1   1   2   2  0.52977449065373D+01 -0.13501445695180D-14
   2   1   2   2  0.23274214405295D+01  0.22651273133674D-14
   3   1   2   2  0.36318988006673D+01  0.31421297750981D-16
   1   2   2   2 -0.62150402295031D+01  0.15308131064678D-14
   2   2   2   2 -0.65344567836978D+01 -0.61062266354384D-15
   3   2   2   2 -0.45181197838294D+01 -0.18090133641235D-15
   1   1   3   2  0.78887261716531D+01 -0.96467090869345D-15
   2   1   3   2  0.36318988092159D+01  0.62758360931684D-15
   3   1   3   2  0.30069711686374D+01  0.11330417155349D-14
   1   2   3   2 -0.88871072651935D+01  0.22102969448542D-14
   2   2   3   2 -0.45181197838294D+01  0.12539018518109D-15
   3   2   3   2 -0.46672534216723D+01 -0.27755575615629D-16
 Band:  8
   1   1   1   1 -0.11558689405804D+02 -0.63057198351757D-15
   2   1   1   1 -0.57582190835909D+01  0.25789742065233D-14
   3   1   1   1 -0.57159681367861D+01 -0.20919769792387D-15
   1   2   1   1  0.16300578224996D+01  0.77567356005092D-15
   2   2   1   1  0.83650077519374D+00 -0.67306123260655D-15
   3   2   1   1  0.87944429540161D+00 -0.67867860795309D-16
   1   1   2   1 -0.57582190835909D+01 -0.39667529873047D-14
   2   1   2   1 -0.23684285475077D+02 -0.11102230246252D-15
   3   1   2   1 -0.57853029611314D+01 -0.28143849520346D-14
   1   2   2   1  0.83650124083380D+00 -0.97462102979714D-15
   2   2   2   1 -0.82227931207970D+01 -0.26365990229312D-15
   3   2   2   1  0.80915108074645D+00  0.67749531321789D-14
   1   1   3   1 -0.57159681367861D+01  0.82562884177564D-16
   2   1   3   1 -0.57853029611314D+01  0.11351726272891D-14
   3   1   3   1 -0.11639942786020D+02 -0.45883435939587D-15
   1   2   3   1  0.87944459130390D+00 -0.11596391445530D-14
   2   2   3   1  0.80915054725605D+00 -0.21229141311369D-14
   3   2   3   1  0.15480076982506D+01 -0.11246346080007D-14
   1   1   1   2  0.16300578224996D+01 -0.10260085137192D-15
   2   1   1   2  0.83650124083380D+00  0.31195666197400D-15
   3   1   1   2  0.87944459130390D+00  0.61146652614429D-15
   1   2   1   2 -0.11558689890126D+02 -0.21163626406917D-15
   2   2   1   2 -0.57582200824899D+01 -0.57973998219898D-15
   3   2   1   2 -0.57159685414847D+01 -0.41561820083891D-15
   1   1   2   2  0.83650077519374D+00  0.62101952832724D-15
   2   1   2   2 -0.82227931207970D+01  0.23036947100418D-14
   3   1   2   2  0.80915054725605D+00  0.21159752372330D-14
   1   2   2   2 -0.57582200824899D+01  0.93362357129825D-15
   2   2   2   2 -0.23684288453471D+02  0.19984014443253D-14
   3   2   2   2 -0.57853045295641D+01 -0.59387483151454D-14
   1   1   3   2  0.87944429540161D+00  0.67155163043524D-15
   2   1   3   2  0.80915108074645D+00 -0.55259522294756D-14
   3   1   3   2  0.15480076982506D+01 -0.13130518860650D-15
   1   2   3   2 -0.57159685414846D+01 -0.27603647273162D-16
   2   2   3   2 -0.57853045295641D+01  0.62787541164368D-14
   3   2   3   2 -0.11639942782942D+02 -0.51868231931707D-15
 K-point:  5.00000000E-01  5.00000000E-01  0.00000000E+00
 Band:  1
   1   1   1   1 -0.11185906978633D+02  0.15851035761738D-15
   2   1   1   1 -0.86696825122663D+01  0.24459259812876D-16
   3   1   1   1 -0.41168946212346D+01 -0.48563950326999D-16
   1   2   1   1  0.11185207257770D+01 -0.72959740298786D-15
   2   2   1   1  0.13541962702758D+01 -0.85981525629740D-15
   3   2   1   1  0.23577380751669D+01 -0.26995025990234D-15
   1   1   2   1 -0.86696825122663D+01  0.60325350075490D-16
   2   1   2   1 -0.11180801877948D+02  0.14311468676809D-15
   3   1   2   1 -0.41117888181511D+01 -0.16269792999490D-15
   1   2   2   1  0.13204990677581D+01 -0.12544800849254D-14
   2   2   2   1  0.11477420355784D+01 -0.93625507451127D-15
   3   2   2   1  0.23532591773926D+01  0.21773059341658D-15
   1   1   3   1 -0.41168946212346D+01  0.23634776660149D-15
   2   1   3   1 -0.41117888181511D+01  0.46041984655942D-15
   3   1   3   1 -0.82286805902893D+01 -0.52399476437846D-16
   1   2   3   1  0.23240423928064D+01 -0.15244552749760D-14
   2   2   3   1  0.23869609709819D+01 -0.86423617346909D-15
   3   2   3   1  0.47110014322329D+01 -0.13998690517500D-14
   1   1   1   2  0.11185207257770D+01  0.65131800613441D-15
   2   1   1   2  0.13204990677581D+01  0.13868069600773D-14
   3   1   1   2  0.23240423928064D+01  0.16160703585510D-14
   1   2   1   2 -0.74217799223659D+01 -0.14137996329211D-15
   2   2   1   2 -0.54233848094474D+01 -0.19872804022929D-15
   3   2   1   2 -0.36444313506759D+01 -0.76793038833887D-15
   1   1   2   2  0.13541962702758D+01  0.71621267855170D-15
   2   1   2   2  0.11477420355784D+01  0.80875289902697D-15
   3   1   2   2  0.23869609709819D+01  0.74150448754373D-15
   1   2   2   2 -0.54233848094474D+01  0.18094712460053D-15
   2   2   2   2 -0.74896375636003D+01 -0.15785983631389D-15
   3   2   2   2 -0.37122873343845D+01 -0.67039209253760D-16
   1   1   3   2  0.23577380751669D+01  0.17974463915154D-15
   2   1   3   2  0.23532591773926D+01  0.10622901572209D-15
   3   1   3   2  0.47110014322329D+01  0.13785248140959D-14
   1   2   3   2 -0.36444313506759D+01  0.11321138980767D-14
   2   2   3   2 -0.37122873343845D+01  0.55850805404144D-15
   3   2   3   2 -0.73567164955190D+01  0.13575762328603D-15
 Band:  2
   1   1   1   1 -0.79765401790258D+01 -0.58980598183211D-16
   2   1   1   1 -0.46174761079921D+01 -0.11556992950110D-15
   3   1   1   1 -0.21118214862773D+01 -0.17392691211254D-15
   1   2   1   1  0.16489316200187D+01  0.65360903109777D-15
   2   2   1   1 -0.40808961688832D+00 -0.15472660724386D-15
   3   2   1   1 -0.20978567991264D+00 -0.72578716986748D-15
   1   1   2   1 -0.46174761079921D+01  0.11123312081116D-15
   2   1   2   1 -0.79086848309333D+01 -0.69388939039072D-17
   3   1   2   1 -0.20439656381388D+01 -0.55973205457254D-15
   1   2   2   1 -0.37439480991843D+00  0.28076520969995D-15
   2   2   2   1  0.16197069079504D+01  0.33528449815792D-15
   3   2   2   1 -0.20530764538336D+00 -0.35637521903909D-15
   1   1   3   1 -0.21118214862773D+01  0.11494631392933D-15
   2   1   3   1 -0.20439656381388D+01  0.66034601617919D-15
   3   1   3   1 -0.41557862678194D+01  0.30601593083514D-16
   1   2   3   1 -0.17608892442891D+00 -0.26021072627843D-16
   2   2   3   1 -0.23900812341414D+00 -0.27612549139950D-15
   3   2   3   1 -0.41509459235395D+00  0.20004388591954D-15
   1   1   1   2  0.16489316200187D+01 -0.94504257506187D-15
   2   1   1   2 -0.37439480991843D+00 -0.53403483719256D-15
   3   1   1   2 -0.17608892442891D+00 -0.86733968916936D-17
   1   2   1   2 -0.11679534396743D+02  0.71123662515049D-15
   2   2   1   2 -0.78756029504968D+01  0.12542292373578D-15
   3   2   1   2 -0.25113198357164D+01  0.14008754840138D-14
   1   1   2   2 -0.40808961688832D+00 -0.43031869017501D-16
   2   1   2   2  0.16197069079504D+01 -0.38038730853332D-15
   3   1   2   2 -0.23900812341414D+00  0.20326710540847D-15
   1   2   2   2 -0.78756029504968D+01  0.71591796211297D-15
   2   2   2   2 -0.11684647074184D+02  0.28275992658422D-15
   3   2   2   2 -0.25164264308004D+01  0.13500719537925D-14
   1   1   3   2 -0.20978567991264D+00  0.51762035275026D-15
   2   1   3   2 -0.20530764538336D+00  0.28351683304807D-15
   3   1   3   2 -0.41509459235395D+00 -0.23032798723163D-15
   1   2   3   2 -0.25113198357165D+01 -0.78157920309008D-15
   2   2   3   2 -0.25164264308004D+01 -0.64230477559396D-15
   3   2   3   2 -0.50277509442951D+01 -0.13476676679131D-15
 Band:  3
   1   1   1   1 -0.16337448130277D+02 -0.28275992658422D-15
   2   1   1   1 -0.81517023109645D+01 -0.79366661657593D-14
   3   1   1   1 -0.18837081038102D+02  0.15990050990611D-13
   1   2   1   1 -0.23101509938258D+01  0.12708211686819D-13
   2   2   1   1 -0.20996175071090D+01  0.14368338443187D-13
   3   2   1   1 -0.11456281304017D+01  0.42270141834040D-14
   1   1   2   1 -0.81517023109645D+01  0.76146581205312D-14
   2   1   2   1 -0.11124683003767D+02 -0.27966995039264D-15
   3   1   2   1 -0.13624316967396D+02  0.14886948340972D-13
   1   2   2   1 -0.23006518374091D+01  0.52911426881500D-14
   2   2   2   1 -0.21839776271243D+01  0.69893749586751D-14
   3   2   2   1 -0.12204902549174D+01  0.37009048106436D-14
   1   1   3   1 -0.18837081038102D+02 -0.15609279187634D-13
   2   1   3   1 -0.13624316967396D+02 -0.15504509898420D-13
   3   1   3   1 -0.32461380598296D+02  0.88831110856937D-16
   1   2   3   1 -0.13466748532887D+01  0.17013441015997D-13
   2   2   3   1 -0.10194641970475D+01  0.16905048456483D-13
   3   2   3   1 -0.23661220837005D+01  0.20323080521007D-14
   1   1   1   2 -0.23101509938258D+01 -0.12979262229940D-13
   2   1   1   2 -0.23006518374091D+01 -0.56507725487634D-14
   3   1   1   2 -0.13466748532887D+01 -0.17068301645925D-13
   1   2   1   2 -0.11087009590317D+02  0.23109769306529D-15
   2   2   1   2 -0.82603466711622D+01 -0.31098348649064D-14
   3   2   1   2 -0.13695302172608D+02 -0.32910852641107D-14
   1   1   2   2 -0.20996175071090D+01 -0.15277333544599D-13
   2   1   2   2 -0.21839776271243D+01 -0.75650863122649D-14
   3   1   2   2 -0.10194641970475D+01 -0.17056836760631D-13
   1   2   2   2 -0.82603466711622D+01  0.40556928401827D-14
   2   2   2   2 -0.16615789045804D+02  0.47704895589362D-15
   3   2   2   2 -0.19224080500167D+02  0.17806195382060D-15
   1   1   3   2 -0.11456281304017D+01 -0.32308492273243D-14
   2   1   3   2 -0.12204902549174D+01 -0.30466972197659D-14
   3   1   3   2 -0.23661220837005D+01 -0.79352795279534D-15
   1   2   3   2 -0.13695302172608D+02  0.49941500366510D-14
   2   2   3   2 -0.19224080500167D+02  0.12027779330569D-14
   3   2   3   2 -0.32919389540357D+02  0.46367044727251D-15
 Band:  4
   1   1   1   1 -0.12673614947877D+02  0.49873299934333D-16
   2   1   1   1 -0.11557314156482D+01  0.98762805640376D-15
   3   1   1   1 -0.30805042735331D+01  0.27339319729309D-15
   1   2   1   1 -0.45725313559328D+00 -0.15622241416407D-14
   2   2   1   1  0.23014117710134D+01 -0.16718199129455D-14
   3   2   1   1  0.44165474090614D-02 -0.12538608493381D-14
   1   1   2   1 -0.11557314156482D+01 -0.12764595151539D-14
   2   1   2   1 -0.17886372122567D+02 -0.17477339020466D-15
   3   1   2   1 -0.82932684381283D+01  0.25622170906216D-14
   1   2   2   1  0.25024512692013D+01 -0.17091673581921D-14
   2   2   2   1 -0.58341994221018D+00 -0.33737381366957D-15
   3   2   2   1  0.79278585240060D-01  0.17296485251819D-15
   1   1   3   1 -0.30805042735331D+01 -0.39243859583200D-15
   2   1   3   1 -0.82932684381283D+01 -0.27739211173265D-14
   3   1   3   1 -0.11373768769654D+02 -0.32170622392172D-15
   1   2   3   1  0.20545079031125D+00  0.12819078827991D-14
   2   2   3   1 -0.12176000546911D+00  0.16681300198280D-14
   3   2   3   1  0.83693213888231D-01 -0.25049398241229D-16
   1   1   1   2 -0.45725313559328D+00  0.10465775884066D-14
   2   1   1   2  0.25024512692013D+01  0.18900122805627D-14
   3   1   1   2  0.20545079031125D+00 -0.86652292546556D-15
   1   2   1   2 -0.18164745070459D+02 -0.15005358067199D-15
   2   2   1   2 -0.10470870996111D+01 -0.77331836756827D-15
   3   2   1   2 -0.84629623964422D+01  0.16209186878600D-14
   1   1   2   2  0.23014117710134D+01  0.22555543626117D-14
   2   1   2   2 -0.58341994221018D+00  0.14915631652609D-15
   3   1   2   2 -0.12176000546911D+00 -0.14373304823602D-14
   1   2   2   2 -0.10470870996111D+01  0.19131864137805D-15
   2   2   2   2 -0.12635963953426D+02 -0.13270634591223D-15
   3   2   2   2 -0.29341840969386D+01 -0.74711092341022D-15
   1   1   3   2  0.44165474090612D-02  0.10969767949795D-14
   2   1   3   2  0.79278585240060D-01 -0.42020360542636D-15
   3   1   3   2  0.83693213888231D-01  0.35133412863994D-15
   1   2   3   2 -0.84629623964422D+01 -0.19057114935176D-14
   2   2   3   2 -0.29341840969386D+01 -0.87358831170406D-16
   3   2   3   2 -0.11397147660216D+02 -0.49963210331661D-15
 Band:  5
   1   1   1   1 -0.78930287124512D+01  0.17694179454963D-15
   2   1   1   1 -0.63962863305726D+01 -0.33913447960203D-15
   3   1   1   1 -0.60198986156295D+01 -0.49540212541822D-15
   1   2   1   1  0.34951221612292D+01 -0.55506139454682D-16
   2   2   1   1  0.37157254107421D+01  0.54375169202751D-15
   3   2   1   1  0.67608605476742D+01 -0.19574509298461D-14
   1   1   2   1 -0.63962863305726D+01  0.16566213200435D-15
   2   1   2   1 -0.78724757793206D+01 -0.35041414214732D-15
   3   1   2   1 -0.59993427296261D+01  0.29409351084054D-15
   1   2   2   1  0.36465333984817D+01  0.22440368285774D-15
   2   2   2   1  0.34656385086995D+01  0.44702168913324D-15
   3   2   2   1  0.66621968698369D+01 -0.71866857721141D-15
   1   1   3   1 -0.60198986156295D+01 -0.85730239034007D-16
   2   1   3   1 -0.59993427296262D+01 -0.65144654689176D-15
   3   1   3   1 -0.12019164805048D+02 -0.60586149134732D-16
   1   2   3   1  0.66915979418336D+01  0.43437295411659D-14
   2   2   3   1  0.67313070531263D+01  0.54422110259552D-14
   3   2   3   1  0.13422980606686D+02  0.11253852802067D-14
   1   1   1   2  0.34951221612292D+01  0.20816180534064D-15
   2   1   1   2  0.36465333984817D+01 -0.33195653836830D-15
   3   1   1   2  0.66915979418336D+01 -0.44261289062748D-14
   1   2   1   2 -0.74282630329885D+01 -0.67654215563095D-16
   2   2   1   2 -0.59323526346419D+01 -0.45448319563613D-15
   3   2   1   2 -0.60103067987636D+01  0.29338831320126D-14
   1   1   2   2  0.37157254107421D+01 -0.49517943470016D-15
   2   1   2   2  0.34656385086995D+01 -0.70549548705379D-15
   3   1   2   2  0.67313070531263D+01 -0.53971082155798D-14
   1   2   2   2 -0.59323526346419D+01  0.46055472780205D-15
   2   2   2   2 -0.74115166662990D+01 -0.11709383462843D-15
   3   2   2   2 -0.59935578880837D+01  0.36390923886973D-14
   1   1   3   2  0.67608605476742D+01  0.19097460342567D-14
   2   1   3   2  0.66621968698369D+01  0.46192950276684D-15
   3   1   3   2  0.13422980606686D+02 -0.99106872466176D-15
   1   2   3   2 -0.60103067987636D+01 -0.20942769696398D-14
   2   2   3   2 -0.59935578880837D+01 -0.31915337318953D-14
   3   2   3   2 -0.12003939852467D+02  0.12810949810748D-15
 Band:  6
   1   1   1   1 -0.72960444453064D+01 -0.91940344226771D-16
   2   1   1   1 -0.14947265415901D+01 -0.11585573994943D-15
   3   1   1   1 -0.14891807813476D+01  0.48941818909041D-16
   1   2   1   1  0.36579505344171D+01 -0.65869185760418D-15
   2   2   1   1 -0.34336894600574D+01  0.52852161170233D-15
   3   2   1   1 -0.23600583804706D+00 -0.52261131993330D-15
   1   1   2   1 -0.14947265415901D+01 -0.21634380570013D-15
   2   1   2   1 -0.73127798895470D+01 -0.13097162243625D-15
   3   1   2   1 -0.15059486432483D+01  0.64113914807888D-15
   1   2   2   1 -0.33644027276638D+01  0.82475176465141D-15
   2   2   2   1  0.36875146647963D+01 -0.99447585175383D-15
   3   2   2   1 -0.13731314154343D+00 -0.43332187641406D-15
   1   1   3   1 -0.14891807813476D+01  0.53327474771567D-15
   2   1   3   1 -0.15059486432483D+01 -0.76703497082927D-16
   3   1   3   1 -0.29951283011248D+01  0.43892780796852D-16
   1   2   3   1 -0.16681276621828D+00 -0.34692947047300D-15
   2   2   3   1 -0.20650245505278D+00  0.27263662026262D-15
   3   2   3   1 -0.37331657545206D+00 -0.63213659622403D-15
   1   1   1   2  0.36579505344171D+01  0.48912263782745D-15
   2   1   1   2 -0.33644027276638D+01 -0.10585057530393D-14
   3   1   1   2 -0.16681276621828D+00  0.30941607530500D-15
   1   2   1   2 -0.77045130676697D+01  0.30401028916494D-15
   2   2   1   2 -0.19063585033018D+01 -0.53907118735665D-15
   3   2   1   2 -0.14948876439252D+01 -0.12430578098361D-15
   1   1   2   2 -0.34336894600574D+01 -0.42877501183366D-15
   2   1   2   2  0.36875146647963D+01  0.87824937886339D-15
   3   1   2   2 -0.20650245505278D+00 -0.31600470716204D-15
   1   2   2   2 -0.19063585033018D+01  0.95280273637712D-15
   2   2   2   2 -0.77252553526320D+01  0.10148132334464D-15
   3   2   2   2 -0.15154711311639D+01 -0.69005363749151D-15
   1   1   3   2 -0.23600583804706D+00  0.45213817872174D-15
   2   1   3   2 -0.13731314154343D+00  0.29844712615686D-15
   3   1   3   2 -0.37331657545206D+00  0.62867033888052D-15
   1   2   3   2 -0.14948876439252D+01 -0.29636466194077D-15
   2   2   3   2 -0.15154711311639D+01  0.56905667504213D-15
   3   2   3   2 -0.30103692363753D+01 -0.17507665446956D-15
 Band:  7
   1   1   1   1 -0.40647064633690D+02 -0.11518563880486D-14
   2   1   1   1 -0.15973817070946D+02  0.33457302464094D-15
   3   1   1   1 -0.42292738982409D+02  0.11458119178020D-14
   1   2   1   1 -0.76119526420931D+01 -0.51276217831325D-14
   2   2   1   1 -0.63897876968213D+01  0.29336761219882D-15
   3   2   1   1 -0.64440862115717D+01 -0.13010250052860D-13
   1   1   2   1 -0.15973817070946D+02 -0.66070103812458D-15
   2   1   2   1 -0.18860904268244D+02 -0.46143644460983D-15
   3   1   2   1 -0.20506472899617D+02 -0.58595909622902D-15
   1   2   2   1 -0.63010670563316D+01 -0.11169471319152D-14
   2   2   2   1 -0.74674374491895D+01 -0.25960186861785D-15
   3   2   2   1 -0.62109545614187D+01 -0.75873606095322D-14
   1   1   3   1 -0.42292738982409D+02 -0.41165258704123D-14
   2   1   3   1 -0.20506472899617D+02  0.79846272203618D-15
   3   1   3   1 -0.62799643111161D+02 -0.18962772229737D-14
   1   2   3   1 -0.63556023829026D+01  0.14439568332469D-14
   2   2   3   1 -0.62998268820226D+01  0.38624868822246D-14
   3   2   3   1 -0.12655000461695D+02 -0.41761710324445D-14
   1   1   1   2 -0.76119526420931D+01  0.39566834368482D-14
   2   1   1   2 -0.63010670563316D+01  0.11427696280057D-15
   3   1   1   2 -0.63556023829026D+01  0.20705929290821D-14
   1   2   1   2 -0.18691083971041D+02 -0.46490589156178D-15
   2   2   1   2 -0.15956296461276D+02 -0.57258785245880D-14
   3   2   1   2 -0.20318984065586D+02  0.47301404819416D-14
   1   1   2   2 -0.63897876968213D+01  0.84634571151794D-15
   2   1   2   2 -0.74674374491895D+01 -0.11854227868708D-14
   3   1   2   2 -0.62998268820226D+01  0.23200675861568D-14
   1   2   2   2 -0.15956296461276D+02  0.57917980166751D-14
   2   2   2   2 -0.40769449050183D+02 -0.16896206656014D-14
   3   2   2   2 -0.42397329907497D+02  0.80870476505951D-14
   1   1   3   2 -0.64440862115717D+01  0.97177448954565D-14
   2   1   3   2 -0.62109545614187D+01  0.38594398596581D-14
   3   1   3   2 -0.12655000461695D+02  0.81583979035147D-14
   1   2   3   2 -0.20318984065586D+02 -0.34273631514830D-14
   2   2   3   2 -0.42397329907497D+02 -0.79101058560455D-14
   3   2   3   2 -0.62716353174458D+02 -0.16540265478302D-16
 Band:  8
   1   1   1   1 -0.17604158105175D+02 -0.93501595355150D-15
   2   1   1   1  0.75566991693447D+00  0.18794525293920D-14
   3   1   1   1 -0.32063986801520D+01  0.19376336526683D-15
   1   2   1   1 -0.87212443842062D+01  0.39613896813655D-14
   2   2   1   1 -0.26813289622690D+00  0.21688136682239D-14
   3   2   1   1 -0.75723040866959D+00  0.16240659889274D-15
   1   1   2   1  0.75566991693447D+00 -0.20650679413215D-14
   2   1   2   1 -0.39390454254995D+02 -0.87777007884426D-15
   3   1   2   1 -0.24992664987091D+02 -0.13389532418049D-14
   1   2   2   1 -0.35675423541931D+00 -0.19060879966109D-14
   2   2   2   1 -0.88657263802522D+01  0.11929250985247D-15
   3   2   2   1 -0.99036188674239D+00 -0.31041476809388D-14
   1   1   3   1 -0.32063986801520D+01 -0.76437896864595D-15
   2   1   3   1 -0.24992664987091D+02  0.36393022808868D-15
   3   1   3   1 -0.28199236166164D+02 -0.12449053888019D-14
   1   2   3   1 -0.84601910651600D+00  0.44858436459087D-16
   2   2   3   1 -0.90179462654758D+00  0.18864210888750D-15
   3   2   3   1 -0.17476420547033D+01 -0.74843013448759D-15
   1   1   1   2 -0.87212443842062D+01 -0.42545579488056D-14
   2   1   1   2 -0.35675423541931D+00  0.85658029364490D-15
   3   1   1   2 -0.84601910651600D+00 -0.26617972201873D-14
   1   2   1   2 -0.39512417418425D+02 -0.10980799602933D-14
   2   2   1   2  0.73812879290769D+00 -0.95898295730937D-15
   3   2   1   2 -0.25132619198530D+02 -0.92784332277916D-15
   1   1   2   2 -0.26813289622690D+00 -0.21341191987044D-14
   2   1   2   2 -0.88657263802522D+01  0.11973626084139D-14
   3   1   2   2 -0.90179462654758D+00  0.14599957145940D-14
   1   2   2   2  0.73812879290768D+00  0.16447960531199D-15
   2   2   2   2 -0.17433986269182D+02 -0.50306980803327D-15
   3   2   2   2 -0.30542736644230D+01  0.81974101222089D-15
   1   1   3   2 -0.75723040866960D+00 -0.14806880204179D-14
   2   1   3   2 -0.99036188674238D+00  0.36306362558978D-14
   3   1   3   2 -0.17476420547033D+01 -0.54379863683437D-15
   1   2   3   2 -0.25132619198530D+02 -0.16671945770649D-14
   2   2   3   2 -0.30542736644230D+01 -0.72606594451814D-15
   3   2   3   2 -0.28186842118586D+02 -0.19002220655129D-14
 K-point:  0.00000000E+00  0.00000000E+00  5.00000000E-01
 Band:  1
   1   1   1   1 -0.39041294806367D+01  0.69388939039072D-16
   2   1   1   1 -0.20424499510733D+01  0.31210230495938D-16
   3   1   1   1 -0.19821925387945D+01 -0.39901033750076D-15
   1   2   1   1  0.17999965579179D+01  0.23979937990205D-15
   2   2   1   1  0.99992956834526D+00 -0.16740527099044D-15
   3   2   1   1  0.93330780070359D+00  0.45616481161809D-15
   1   1   2   1 -0.20424499510733D+01 -0.32944953971915D-16
   2   1   2   1 -0.39458092774626D+01  0.32959746043559D-16
   3   1   2   1 -0.19960853322877D+01 -0.80436749606912D-15
   1   2   2   1  0.99992958434807D+00 -0.15479728679502D-15
   2   2   2   1  0.18450137061535D+01 -0.33055129227442D-16
   3   2   2   1  0.94831372603558D+00  0.21359571209648D-15
   1   1   3   1 -0.19821925387945D+01  0.55773753555264D-15
   2   1   3   1 -0.19960853322877D+01  0.93447175676738D-15
   3   1   3   1 -0.64197824770707D+01  0.17867651802561D-15
   1   2   3   1  0.93330928346782D+00  0.11109463276141D-15
   2   2   3   1  0.94831554095250D+00 -0.90373293003704D-15
   3   2   3   1  0.21662147077354D+01 -0.50509359362784D-14
   1   1   1   2  0.17999965579179D+01 -0.22592159209423D-15
   2   1   1   2  0.99992958434807D+00  0.15479728679502D-15
   3   1   1   2  0.93330928346782D+00 -0.13798284663905D-15
   1   2   1   2 -0.39041302552867D+01  0.57245874707235D-16
   2   2   1   2 -0.20424505173343D+01  0.26394717119009D-15
   3   2   1   2 -0.19821943177472D+01  0.63878791184157D-15
   1   1   2   2  0.99992956834526D+00  0.15352748318263D-15
   2   1   2   2  0.18450137061535D+01  0.13019964388214D-15
   3   1   2   2  0.94831554095250D+00  0.85342594923371D-15
   1   2   2   2 -0.20424505173343D+01 -0.11996512268402D-15
   2   2   2   2 -0.39458089740305D+01 -0.52041704279304D-17
   3   2   2   2 -0.19960880382991D+01 -0.11815250328983D-15
   1   1   3   2  0.93330780070359D+00 -0.59147324274428D-15
   2   1   3   2  0.94831372603558D+00 -0.13032898524959D-15
   3   1   3   2  0.21662147077354D+01  0.52495617742778D-14
   1   2   3   2 -0.19821943177472D+01 -0.43452422254530D-15
   2   2   3   2 -0.19960880382991D+01  0.20575603882666D-15
   3   2   3   2 -0.64197838985086D+01  0.22117724318704D-16
 Band:  2
   1   1   1   1 -0.54756717589363D+01 -0.16653345369377D-15
   2   1   1   1 -0.27428212700663D+01 -0.91191506603107D-16
   3   1   1   1 -0.27394971693278D+01 -0.13281378407325D-15
   1   2   1   1 -0.19072441697024D+00  0.79001175793029D-15
   2   2   1   1 -0.10187589654032D+00 -0.24322085853273D-15
   3   2   1   1 -0.97533800614797D-01  0.38657815429282D-15
   1   1   2   1 -0.27428212700663D+01 -0.76877315275709D-17
   2   1   2   1 -0.54780239109445D+01 -0.14745149545803D-15
   3   1   2   1 -0.27402817420714D+01 -0.78055964546008D-16
   1   2   2   1 -0.10187599841446D+00  0.43048386395520D-15
   2   2   2   1 -0.19361098792880D+00  0.40725228540114D-15
   3   2   2   1 -0.98496190176467D-01  0.37180858312606D-16
   1   1   3   1 -0.27394971693278D+01  0.20056758134758D-16
   2   1   3   1 -0.27402817420714D+01 -0.44242040510357D-16
   3   1   3   1 -0.15633591039821D+02 -0.21684043449710D-16
   1   2   3   1 -0.97532971010990D-01  0.28859915333954D-15
   2   2   3   1 -0.98494879741186D-01 -0.23446351589743D-15
   3   2   3   1  0.29270153534414D+01 -0.25184986854412D-14
   1   1   1   2 -0.19072441697024D+00 -0.72062281889122D-15
   2   1   1   2 -0.10187599841446D+00 -0.39925884138762D-15
   3   1   1   2 -0.97532971010990D-01  0.11508008004447D-16
   1   2   1   2 -0.54756719549028D+01 -0.28449465006020D-15
   2   2   1   2 -0.27428215461173D+01 -0.43358852368435D-16
   3   2   1   2 -0.27394980479887D+01 -0.29381837608854D-15
   1   1   2   2 -0.10187589654032D+00 -0.24250171474078D-15
   2   1   2   2 -0.19361098792880D+00 -0.32051611160230D-15
   3   1   2   2 -0.98494879741186D-01  0.55798944416710D-15
   1   2   2   2 -0.27428215461173D+01  0.69296593729217D-17
   2   2   2   2 -0.54780239790127D+01 -0.18041124150159D-15
   3   2   2   2 -0.27402820929224D+01 -0.66746517232547D-15
   1   1   3   2 -0.97533800614796D-01 -0.88704587711213D-15
   2   1   3   2 -0.98496190176467D-01  0.34706039161626D-15
   3   1   3   2  0.29270153534414D+01  0.42160340269017D-14
   1   2   3   2 -0.27394980479887D+01  0.33111493082204D-15
   2   2   3   2 -0.27402820929224D+01  0.52695257077135D-15
   3   2   3   2 -0.15633590141083D+02  0.86269966864672D-15
 Band:  3
   1   1   1   1 -0.28267113359632D+02 -0.81185058675715D-15
   2   1   1   1 -0.31466327303101D+02 -0.10560524025163D-13
   3   1   1   1 -0.19931443422661D+02 -0.34726838839999D-14
   1   2   1   1 -0.42293609232310D+01 -0.34085404039570D-14
   2   2   1   1  0.20364656012244D+01  0.17855830610459D-13
   3   2   1   1  0.16305529409084D+00  0.28820644112127D-14
   1   1   2   1 -0.31466327303101D+02  0.11093951494025D-13
   2   1   2   1 -0.27907009110725D+02 -0.14745149545803D-15
   3   1   2   1 -0.19837435296310D+02  0.33076886014599D-15
   1   2   2   1  0.20364655597970D+01  0.12064182193397D-13
   2   2   2   1 -0.11424430631489D+02 -0.71171514770880D-14
   3   2   2   1 -0.24297636188120D+01  0.28946091710225D-14
   1   1   3   1 -0.19931443422661D+02  0.25047081844049D-14
   2   1   3   1 -0.19837435296310D+02  0.39781499976427D-15
   3   1   3   1 -0.21644379021505D+02 -0.26194324487250D-15
   1   2   3   1  0.16305592495581D+00  0.48299599078422D-14
   2   2   3   1 -0.24297626572787D+01  0.46398775775985D-15
   3   2   3   1  0.40583344397969D+00  0.41913152243197D-14
   1   1   1   2 -0.42293609232310D+01  0.43869244444079D-14
   2   1   1   2  0.20364655597970D+01 -0.98021027807233D-14
   3   1   1   2  0.16305592495581D+00 -0.89213761737489D-15
   1   2   1   2 -0.28267113138190D+02 -0.64531713306337D-15
   2   2   1   2 -0.31466326739679D+02  0.43843366685628D-14
[...]
   3   2   1   1  0.19324043674507D+01  0.41706100548349D-03
   1   1   2   1 -0.70922067035477D+01  0.43357712110816D-03
   2   1   2   1 -0.28629191411704D+02 -0.34087316302944D-15
   3   1   2   1  0.90853975379464D+01 -0.12253515547003D-01
   1   2   2   1  0.11334791887978D+01  0.93092261615974D-03
   2   2   2   1  0.70875033866582D+01  0.47667732397038D-03
   3   2   2   1  0.11858810167796D+01  0.12296539097119D-01
   1   1   3   1 -0.12014409248627D+02  0.41733802880088D-03
   2   1   3   1  0.90853975379464D+01  0.12253515547002D-01
   3   1   3   1 -0.32417786213924D+02 -0.19775847626136D-15
   1   2   3   1  0.12595329116148D+01 -0.84890338054040D-03
   2   2   3   1  0.15350153911181D+01  0.10947273879704D-01
   3   2   3   1 -0.52301028364266D+01  0.11739763815319D-04
   1   1   1   2 -0.25807144248993D+00 -0.60237743538694D-04
   2   1   1   2  0.11334791887978D+01 -0.93092261616242D-03
   3   1   1   2  0.12595329116148D+01  0.84890338054270D-03
   1   2   1   2 -0.18288629114997D+02 -0.10031435546530D-14
   2   2   1   2 -0.10668405308399D+02 -0.86463437398621D-03
   3   2   1   2 -0.81071122269813D+01 -0.85331394798934D-03
   1   1   2   2  0.17065973403142D+01  0.37329697353640D-03
   2   1   2   2  0.70875033866582D+01 -0.47667732397488D-03
   3   1   2   2  0.15350153911181D+01 -0.10947273879701D-01
   1   2   2   2 -0.10668405308399D+02  0.86463437398661D-03
   2   2   2   2 -0.32204934699121D+02 -0.15317608292875D-14
   3   2   2   2  0.92798379219863D+01  0.10986023204721D-01
   1   1   3   2  0.19324043674507D+01 -0.41706100548285D-03
   2   1   3   2  0.11858810167796D+01 -0.12296539097120D-01
   3   1   3   2 -0.52301028364266D+01 -0.11739763810344D-04
   1   2   3   2 -0.81071122269813D+01  0.85331394798738D-03
   2   2   3   2  0.92798379219863D+01 -0.10986023204718D-01
   3   2   3   2 -0.28499310253446D+02 -0.26922908347160D-14
 K-point:  5.00000000E-01  5.00000000E-01  5.00000000E-01
 Band:  1
   1   1   1   1 -0.93788298059178D+01  0.12397851842372D-15
   2   1   1   1 -0.75065823878842D+01  0.12367012638074D-05
   3   1   1   1 -0.24780507316381D+01  0.42746714182668D-05
   1   2   1   1 -0.54448796417578D+01 -0.37389566093245D-05
   2   2   1   1 -0.44260104289952D+01 -0.40446964873227D-05
   3   2   1   1 -0.26508153855254D+00  0.24260218578593D-06
   1   1   2   1 -0.75065823878842D+01 -0.12367012639571D-05
   2   1   2   1 -0.93808601846961D+01  0.24481285054723D-15
   3   1   2   1 -0.24699366483143D+01  0.47580431198685D-05
   1   2   2   1 -0.44260119063805D+01 -0.55387612073100D-05
   2   2   2   1 -0.54460973502282D+01 -0.55134942542751D-05
   3   2   2   1 -0.25706102028773D+00 -0.27815841165177D-06
   1   1   3   1 -0.24780507316381D+01 -0.42746714187759D-05
   2   1   3   1 -0.24699366483143D+01 -0.47580431200897D-05
   3   1   3   1 -0.57217057517759D+01 -0.30184188481996D-15
   1   2   3   1 -0.26505903793548D+00 -0.26047840396307D-05
   2   2   3   1 -0.25703669396090D+00 -0.20103687118558D-05
   3   2   3   1  0.19199797060532D+01  0.14513549317234D-06
   1   1   1   2 -0.54448796417578D+01  0.37389566095168D-05
   2   1   1   2 -0.44260119063805D+01  0.55387612076059D-05
   3   1   1   2 -0.26505903793548D+00  0.26047840398089D-05
   1   2   1   2 -0.93788538285442D+01  0.22616457318048D-15
   2   2   1   2 -0.75066024249978D+01  0.24561788177513D-06
   3   2   1   2 -0.24780727741152D+01  0.16368377120360D-05
   1   1   2   2 -0.44260104289952D+01  0.40446964872705D-05
   2   1   2   2 -0.54460973502282D+01  0.55134942542125D-05
   3   1   2   2 -0.25703669396090D+00  0.20103687116786D-05
   1   2   2   2 -0.75066024249978D+01 -0.24561788153726D-06
   2   2   2   2 -0.93808763133827D+01  0.35756987648572D-15
   3   2   2   2 -0.24699607373109D+01  0.20704210632639D-05
   1   1   3   2 -0.26508153855254D+00 -0.24260218576164D-06
   2   1   3   2 -0.25706102028773D+00  0.27815841161675D-06
   3   1   3   2  0.19199797060532D+01 -0.14513549325561D-06
   1   2   3   2 -0.24780727741152D+01 -0.16368377109339D-05
   2   2   3   2 -0.24699607373109D+01 -0.20704210627379D-05
   3   2   3   2 -0.57217016911196D+01 -0.13530843112619D-15
 Band:  2
   1   1   1   1 -0.11747981440573D+02  0.58091552401773D-15
   2   1   1   1 -0.88495210466412D+01  0.20670406005396D-05
   3   1   1   1 -0.85981020044066D+01 -0.69238983772656D-06
   1   2   1   1 -0.27525305936758D+01 -0.48501022368713D-06
   2   2   1   1 -0.21426882893371D+01 -0.52137517082542D-06
   3   2   1   1 -0.13750670867136D+01  0.14984893397739D-06
   1   1   2   1 -0.88495210466412D+01 -0.20670405994859D-05
   2   1   2   1 -0.11751424619196D+02  0.63165618569005D-15
   3   1   2   1 -0.85977043561503D+01 -0.24820092243244D-05
   1   2   2   1 -0.21426913789685D+01  0.13861651049971D-05
   2   2   2   1 -0.27784289497470D+01  0.16018407082899D-05
   3   2   2   1 -0.13820480499280D+01  0.16442638007884D-05
   1   1   3   1 -0.85981020044066D+01  0.69238983791250D-06
   2   1   3   1 -0.85977043561503D+01  0.24820092250903D-05
   3   1   3   1 -0.11487407952730D+02 -0.63317406873153D-16
   1   2   3   1 -0.13750643448950D+01 -0.65351904885645D-06
   2   2   3   1 -0.13820422478289D+01 -0.60330588020411D-06
   3   2   3   1 -0.96913442018819D+00 -0.37011739243933D-06
   1   1   1   2 -0.27525305936758D+01  0.48501022255696D-06
   2   1   1   2 -0.21426913789685D+01 -0.13861651057332D-05
   3   1   1   2 -0.13750643448950D+01  0.65351904853097D-06
   1   2   1   2 -0.11747986237318D+02  0.72294600861333D-15
   2   2   1   2 -0.88495281057626D+01  0.20377991470764D-06
   3   2   1   2 -0.85981058714950D+01 -0.40504310189103D-06
   1   1   2   2 -0.21426882893371D+01  0.52137516931285D-06
   2   1   2   2 -0.27784289497470D+01 -0.16018407082965D-05
   3   1   2   2 -0.13820422478289D+01  0.60330588105781D-06
   1   2   2   2 -0.88495281057626D+01 -0.20377991268691D-06
   2   2   2   2 -0.11751434394174D+02  0.11247513337365D-14
   3   2   2   2 -0.85977113355522D+01 -0.42146736394120D-06
   1   1   3   2 -0.13750670867136D+01 -0.14984893408971D-06
   2   1   3   2 -0.13820480499280D+01 -0.16442638005001D-05
   3   1   3   2 -0.96913442018819D+00  0.37011739337695D-06
   1   2   3   2 -0.85981058714950D+01  0.40504310201159D-06
   2   2   3   2 -0.85977113355522D+01  0.42146736592724D-06
   3   2   3   2 -0.11487409065073D+02  0.18041124150159D-15
 Band:  3
   1   1   1   1 -0.93816852476710D+01 -0.38033812210791D-15
   2   1   1   1  0.10325905001771D+02 -0.20330054769482D-05
   3   1   1   1 -0.88298411057480D+01 -0.42625795930462D-05
   1   2   1   1  0.12756809195434D+02  0.34043464461065D-05
   2   2   1   1  0.12120110774650D+02  0.57260279686824D-05
   3   2   1   1  0.27514967826965D+01 -0.59270240825621D-06
   1   1   2   1  0.10325905001771D+02  0.20330054768047D-05
   2   1   2   1 -0.11181662633987D+02 -0.11535911115246D-15
   3   1   2   1 -0.58173619851131D+01 -0.31510182647916D-05
   1   2   2   1  0.12120116882009D+02  0.36145591913013D-05
   2   2   2   1  0.13240690461620D+02  0.59142967555490D-05
   3   2   2   1  0.28267403401017D+01 -0.20477362566767D-05
   1   1   3   1 -0.88298411057480D+01  0.42625795921324D-05
   2   1   3   1 -0.58173619851131D+01  0.31510182628492D-05
   3   1   3   1 -0.13300637874692D+02 -0.21971357025419D-15
   1   2   3   1  0.27514648287348D+01  0.54799293542787D-05
   2   2   3   1  0.28267036319856D+01  0.58333893151869D-05
   3   2   3   1  0.29962596026681D+01  0.51407167811375D-06
   1   1   1   2  0.12756809195434D+02 -0.34043464448822D-05
   2   1   1   2  0.12120116882009D+02 -0.36145591919049D-05
   3   1   1   2  0.27514648287348D+01 -0.54799293535096D-05
   1   2   1   2 -0.93816492242112D+01 -0.92807705964759D-15
   2   2   1   2  0.10325941260852D+02  0.23951147940568D-05
   3   2   1   2 -0.88298091193560D+01 -0.21378939351016D-06
   1   1   2   2  0.12120110774650D+02 -0.57260279681076D-05
   2   1   2   2  0.13240690461620D+02 -0.59142967557201D-05
   3   1   2   2  0.28267036319856D+01 -0.58333893139246D-05
   1   2   2   2  0.10325941260852D+02 -0.23951147940215D-05
   2   2   2   2 -0.11181625731129D+02 -0.37990444123892D-15
   3   2   2   2 -0.58173254522827D+01 -0.25123650193916D-06
   1   1   3   2  0.27514967826965D+01  0.59270240927989D-06
   2   1   3   2  0.28267403401017D+01  0.20477362555798D-05
   3   1   3   2  0.29962596026681D+01 -0.51407167867756D-06
   1   2   3   2 -0.88298091193560D+01  0.21378939325898D-06
   2   2   3   2 -0.58173254522827D+01  0.25123649987986D-06
   3   2   3   2 -0.13300636824055D+02 -0.11308228659024D-15
 Band:  4
   1   1   1   1 -0.12365220486272D+02 -0.40744317642005D-15
   2   1   1   1 -0.10450991879545D+02 -0.11764312478510D-05
   3   1   1   1 -0.13985836265174D+00 -0.86352716904865D-06
   1   2   1   1  0.35454012123715D+01  0.65670050378480D-06
   2   2   1   1 -0.10844190090597D+01 -0.90415365567615D-07
   3   2   1   1  0.13922174950416D+01  0.17044503361331D-05
   1   1   2   1 -0.10450991879545D+02  0.11764312481485D-05
   2   1   2   1 -0.12150505960758D+02 -0.96277152916713D-16
   3   1   2   1 -0.31125515871846D+01  0.48125801455350D-06
   1   2   2   1 -0.10844216751181D+01  0.84387947242294D-06
   2   2   2   1  0.13116901959834D+01  0.38320088716099D-06
   3   2   2   1  0.12771891368115D+01  0.25991727611404D-06
   1   1   3   1 -0.13985836265174D+00  0.86352716762596D-06
   2   1   3   1 -0.31125515871846D+01 -0.48125801510384D-06
   3   1   3   1 -0.22712237107292D+02  0.11587952819525D-14
   1   2   3   1  0.13922152464906D+01 -0.62030309392364D-06
   2   2   3   1  0.12771899245116D+01 -0.81915985785028D-06
   3   2   3   1  0.29318652332884D+01  0.61136739303375D-06
   1   1   1   2  0.35454012123715D+01 -0.65670050364905D-06
   2   1   1   2 -0.10844216751181D+01 -0.84387947302316D-06
   3   1   1   2  0.13922152464906D+01  0.62030309393557D-06
   1   2   1   2 -0.12365216405203D+02 -0.59023966270111D-15
   2   2   1   2 -0.10450992173804D+02 -0.82121825286104D-06
   3   2   1   2 -0.13985438533005D+00 -0.55229899310874D-06
   1   1   2   2 -0.10844190090597D+01  0.90415365816331D-07
   2   1   2   2  0.13116901959834D+01 -0.38320088601846D-06
   3   1   2   2  0.12771899245116D+01  0.81915985819007D-06
   1   2   2   2 -0.10450992173804D+02  0.82121825307441D-06
   2   2   2   2 -0.12150508156172D+02  0.48138576458356D-16
   3   2   2   2 -0.31125511617804D+01 -0.99877758086013D-06
   1   1   3   2  0.13922174950416D+01 -0.17044503352148D-05
   2   1   3   2  0.12771891368115D+01 -0.25991727405319D-06
   3   1   3   2  0.29318652332884D+01 -0.61136739224185D-06
   1   2   3   2 -0.13985438533005D+00  0.55229899270228D-06
   2   2   3   2 -0.31125511617804D+01  0.99877758010368D-06
   3   2   3   2 -0.22712235229044D+02 -0.17937040741600D-14
 Band:  5
   1   1   1   1 -0.97922445470509D+01  0.19515639104739D-15
   2   1   1   1 -0.12651083814015D+02 -0.46938554946293D-05
   3   1   1   1  0.14886019477318D+01 -0.26034758328044D-05
   1   2   1   1  0.56669145979095D+01 -0.11196734685916D-05
   2   2   1   1 -0.36288664692922D+01 -0.59814515462087D-05
   3   2   1   1  0.78263881644937D+00  0.64639413060771D-06
   1   1   2   1 -0.12651083814015D+02  0.46938554968159D-05
   2   1   2   1 -0.10455154675602D+02 -0.11275702593849D-16
   3   1   2   1 -0.14796390797987D+01 -0.33601146323823D-06
   1   2   2   1 -0.36288652894825D+01  0.46808456231070D-05
   2   2   2   1  0.18322621188115D+01  0.26998578294152D-06
   3   2   2   1 -0.91751912977090D+00 -0.12657148224934D-05
   1   1   3   1  0.14886019477318D+01  0.26034758319771D-05
   2   1   3   1 -0.14796390797987D+01  0.33601146056935D-06
   3   1   3   1 -0.21614424736167D+02  0.11232334506950D-15
   1   2   3   1  0.78264216379289D+00 -0.15283057438321D-05
   2   2   3   1 -0.91752535708417D+00 -0.21915538238366D-05
   3   2   3   1  0.36599455035775D+01 -0.10773249226078D-05
   1   1   1   2  0.56669145979095D+01  0.11196734699924D-05
   2   1   1   2 -0.36288652894825D+01 -0.46808456221008D-05
   3   1   1   2  0.78264216379290D+00  0.15283057436617D-05
   1   2   1   2 -0.97922476609067D+01 -0.18301332671555D-14
   2   2   1   2 -0.12651084672897D+02 -0.55192502856054D-05
   3   2   1   2  0.14885963937744D+01 -0.12793827207766D-05
   1   1   2   2 -0.36288664692922D+01  0.59814515463604D-05
   2   1   2   2  0.18322621188115D+01 -0.26998578278235D-06
   3   1   2   2 -0.91752535708417D+00  0.21915538235187D-05
   1   2   2   2 -0.12651084672897D+02  0.55192502833962D-05
   2   2   2   2 -0.10455156046842D+02 -0.13053794156725D-14
   3   2   2   2 -0.14796336109471D+01 -0.23771044435523D-05
   1   1   3   2  0.78263881644937D+00 -0.64639413211388D-06
   2   1   3   2 -0.91751912977090D+00  0.12657148212976D-05
   3   1   3   2  0.36599455035775D+01  0.10773249239039D-05
   1   2   3   2  0.14885963937744D+01  0.12793827233002D-05
   2   2   3   2 -0.14796336109471D+01  0.23771044429823D-05
   3   2   3   2 -0.21614431263547D+02 -0.68087896432090D-16
 Band:  6
   1   1   1   1 -0.42231462483844D+01  0.79276862852140D-15
   2   1   1   1  0.94416074051463D+01 -0.82682331122267D-05
   3   1   1   1 -0.65510542923654D+01 -0.53139465178797D-07
   1   2   1   1  0.13899775896046D+02 -0.62846090587719D-06
   2   2   1   1  0.54586783980124D+01 -0.99331855494949D-05
   3   2   1   1 -0.18168954720378D+01  0.17416529550430D-06
   1   1   2   1  0.94416074051463D+01  0.82682331103220D-05
   2   1   2   1 -0.42671270116795D+01  0.11102230246252D-15
   3   1   2   1 -0.35899749749836D+01  0.33745786903390D-05
   1   2   2   1  0.54586793411476D+01  0.46519575372553D-05
   2   2   2   1  0.17020567914383D+02 -0.44635190820600D-05
   3   2   2   1 -0.10957400668147D+00 -0.16830955838067D-05
   1   1   3   1 -0.65510542923654D+01  0.53139464835972D-07
   2   1   3   1 -0.35899749749836D+01 -0.33745786900891D-05
   3   1   3   1 -0.10512404646031D+02  0.64087021009029D-15
   1   2   3   1 -0.18168822048698D+01 -0.25769347725481D-05
   2   2   3   1 -0.10956162124706D+00 -0.12905512820484D-05
   3   2   3   1 -0.23316791519548D+01  0.24256929177493D-06
   1   1   1   2  0.13899775896046D+02  0.62846090386665D-06
   2   1   1   2  0.54586793411476D+01 -0.46519575362786D-05
   3   1   1   2 -0.18168822048698D+01  0.25769347716443D-05
   1   2   1   2 -0.42231648131818D+01 -0.23245294578089D-15
   2   2   1   2  0.94415901666845D+01 -0.96418154218429D-05
   3   2   1   2 -0.65510696464578D+01  0.36865826463588D-06
   1   1   2   2  0.54586783980124D+01  0.99331855490751D-05
   2   1   2   2  0.17020567914383D+02  0.44635190832240D-05
   3   1   2   2 -0.10956162124706D+00  0.12905512816448D-05
   1   2   2   2  0.94415901666845D+01  0.96418154207067D-05
   2   2   2   2 -0.42671424632331D+01 -0.11241008124330D-14
   3   2   2   2 -0.35899925131551D+01 -0.11169914674069D-05
   1   1   3   2 -0.18168954720378D+01 -0.17416529549097D-06
   2   1   3   2 -0.10957400668147D+00  0.16830955818878D-05
   3   1   3   2 -0.23316791519548D+01 -0.24256929068876D-06
   1   2   3   2 -0.65510696464578D+01 -0.36865826697272D-06
   2   2   3   2 -0.35899925131551D+01  0.11169914680182D-05
   3   2   3   2 -0.10512411741379D+02 -0.79481506012197D-15
 Band:  7
   1   1   1   1 -0.23589798313701D+01 -0.85001450322864D-16
   2   1   1   1 -0.94510595232635D+01 -0.41219460860922D-05
   3   1   1   1 -0.14872605584123D+01 -0.32849891249099D-05
   1   2   1   1  0.48893470549876D+01  0.16587281382908D-05
   2   2   1   1 -0.30851780625295D+01 -0.18029485088549D-05
   3   2   1   1 -0.22477796752436D+01 -0.40171497854217D-05
   1   1   2   1 -0.94510595232635D+01  0.41219460864159D-05
   2   1   2   1 -0.14006536092564D+01 -0.35843723822371D-15
   3   1   2   1 -0.85846153993370D+00  0.65858947546880D-06
   1   2   2   1 -0.30851751516378D+01  0.25958650990164D-05
   2   2   2   1  0.58251544460273D+01  0.36656604723733D-06
   3   2   2   1 -0.16473011898353D+01  0.11053944970042D-05
   1   1   3   1 -0.14872605584123D+01  0.32849891256788D-05
   2   1   3   1 -0.85846153993371D+00 -0.65858947480960D-06
   3   1   3   1 -0.83902839320167D+01  0.76327832942980D-16
   1   2   3   1 -0.22477777603450D+01  0.11588432283993D-05
   2   2   3   1 -0.16473012373997D+01 -0.35658453651987D-05
   3   2   3   1 -0.34256877144572D+00  0.60556464267228D-06
   1   1   1   2  0.48893470549876D+01 -0.16587281380139D-05
   2   1   1   2 -0.30851751516378D+01 -0.25958650984225D-05
   3   1   1   2 -0.22477777603450D+01 -0.11588432284175D-05
   1   2   1   2 -0.23589837680290D+01  0.18886801844697D-15
   2   2   1   2 -0.94510590300861D+01 -0.24592021793698D-05
   3   2   1   2 -0.14872611351720D+01 -0.22827056350522D-05
   1   1   2   2 -0.30851780625295D+01  0.18029485087595D-05
   2   1   2   2  0.58251544460273D+01 -0.36656604690231D-06
   3   1   2   2 -0.16473012373997D+01  0.35658453650097D-05
   1   2   2   2 -0.94510590300860D+01  0.24592021807214D-05
   2   2   2   2 -0.14006517593157D+01  0.34716153562986D-15
   3   2   2   2 -0.85845911490682D+00  0.12936826117553D-05
   1   1   3   2 -0.22477796752436D+01  0.40171497855579D-05
   2   1   3   2 -0.16473011898353D+01 -0.11053944972297D-05
   3   1   3   2 -0.34256877144572D+00 -0.60556464333841D-06
   1   2   3   2 -0.14872611351720D+01  0.22827056363125D-05
   2   2   3   2 -0.85845911490682D+00 -0.12936826111586D-05
   3   2   3   2 -0.83902965154737D+01  0.43715031594616D-15
 Band:  8
   1   1   1   1 -0.13781508174473D+02  0.18908485888147D-15
   2   1   1   1 -0.10406395764698D+02 -0.28864580858751D-05
   3   1   1   1 -0.19589069306443D+02  0.50161995593476D-06
   1   2   1   1 -0.10235640213050D+02  0.58156690546682D-06
   2   2   1   1 -0.81553163772721D+01  0.25452462221922D-08
   3   2   1   1 -0.10244007098004D+02 -0.23456280684177D-05
   1   1   2   1 -0.10406395764698D+02  0.28864580875405D-05
   2   1   2   1 -0.14003861601491D+02  0.40592529337857D-15
   3   1   2   1 -0.19704193295074D+02  0.84263930124892D-06
   1   2   2   1 -0.81553117922150D+01  0.23900023568894D-06
   2   2   2   1 -0.10013075692377D+02 -0.15870478107078D-06
   3   2   2   1 -0.10128742839321D+02 -0.29027595036567D-05
   1   1   3   1 -0.19589069306443D+02 -0.50161995846745D-06
   2   1   3   1 -0.19704193295074D+02 -0.84263930210934D-06
   3   1   3   1 -0.27983544178181D+02  0.47184478546569D-15
   1   2   3   1 -0.10244017125317D+02  0.40258153139305D-05
   2   2   3   1 -0.10128756142054D+02  0.23573517756891D-05
   3   2   3   1 -0.80648560835193D+01  0.54685164175606D-06
   1   1   1   2 -0.10235640213050D+02 -0.58156690534062D-06
   2   1   1   2 -0.81553117922150D+01 -0.23900023812233D-06
   3   1   1   2 -0.10244017125317D+02 -0.40258153173713D-05
   1   2   1   2 -0.13781502264903D+02  0.26385144069607D-14
   2   2   1   2 -0.10406383110349D+02  0.26281605028923D-05
   3   2   1   2 -0.19589061240922D+02  0.10325646995088D-05
   1   1   2   2 -0.81553163772721D+01 -0.25452458843548D-08
   2   1   2   2 -0.10013075692377D+02  0.15870478006854D-06
   3   1   2   2 -0.10128756142054D+02 -0.23573517782461D-05
   1   2   2   2 -0.10406383110349D+02 -0.26281604984687D-05
   2   2   2   2 -0.14003843419646D+02  0.10616507672978D-14
   3   2   2   2 -0.19704181617222D+02 -0.67671585812050D-06
   1   1   3   2 -0.10244007098004D+02  0.23456280658252D-05
   2   1   3   2 -0.10128742839321D+02  0.29027594985662D-05
   3   1   3   2 -0.80648560835193D+01 -0.54685164922925D-06
   1   2   3   2 -0.19589061240922D+02 -0.10325646959803D-05
   2   2   3   2 -0.19704181617222D+02  0.67671586001655D-06
   3   2   3   2 -0.27983546205731D+02  0.31918911957973D-15

 List of bloks and their characteristics 
  
 2nd eigenvalue derivatives   - # elements :      36
 qpt  0.00000000E+00  0.00000000E+00  0.00000000E+00   1.0
  
 2nd eigenvalue derivatives   - # elements :      36
 qpt  5.00000000E-01  0.00000000E+00  0.00000000E+00   1.0
  
 2nd eigenvalue derivatives   - # elements :      36
 qpt  5.00000000E-01  5.00000000E-01  0.00000000E+00   1.0
