
.Version 7.10.4 of ABINIT 
.(MPI version, prepared for a x86_64_linux_gnu4.7 computer) 

.Copyright (C) 1998-2014 ABINIT group . 
 ABINIT comes with ABSOLUTELY NO WARRANTY.
 It is free software, and you are welcome to redistribute it
 under certain conditions (GNU General Public License,
 see ~abinit/COPYING or http://www.gnu.org/copyleft/gpl.txt).

 ABINIT is a project of the Universite Catholique de Louvain,
 Corning Inc. and other collaborators, see ~abinit/doc/developers/contributors.txt .
 Please read ~abinit/doc/users/acknowledgments.html for suggested
 acknowledgments of the ABINIT effort.
 For more information, see http://www.abinit.org .

.Starting date : Sun  1 Feb 2015.
- ( at 15h18 )
  
- input  file    -> t62.in
- output file    -> t62_MPI4.out
- root for input  files -> t62_MPI4i
- root for output files -> t62_MPI4o


 DATASET    1 : space group F-4 3 m (#216); Bravais cF (face-center cubic)
================================================================================
 Values of the parameters that define the memory need for DATASET  1.
   intxc =         0  ionmov =         0    iscf =        17 xclevel =         1
  lmnmax =         8   lnmax =         4   mband =         4  mffmem =         1
P  mgfft =        12   mkmem =         5 mpssoang=         2     mpw =        41
  mqgrid =      3001   natom =         2    nfft =       864    nkpt =        10
  nloalg =         4  nspden =         1 nspinor =         1  nsppol =         1
    nsym =        24  n1xccc =         1  ntypat =         2  occopt =         1
Pmy_natom=         1
 PAW method is used; the additional fine FFT grid is defined by:
   mgfftf=        24    nfftf =      6912
================================================================================
P This job should need less than                       3.209 Mbytes of memory.
  Rough estimation (10% accuracy) of disk space for files :
_ WF disk file :      0.052 Mbytes ; DEN or POT disk file :      0.055 Mbytes.
================================================================================


 DATASET    2 : space group F-4 3 m (#216); Bravais cF (face-center cubic)
================================================================================
 Values of the parameters that define the memory need for DATASET  2 (RF).
   intxc =         0    iscf =        -3 xclevel =         1  lmnmax =         8
   lnmax =         4   mband =         4  mffmem =         1   mgfft =        12
P  mkmem =        32  mkqmem =        32  mk1mem =        32 mpssoang=         2
     mpw =        77  mqgrid =      3001   natom =         2    nfft =      1728
    nkpt =       128  nloalg =         4  nspden =         1 nspinor =         1
  nsppol =         1    nsym =        24  n1xccc =         1  ntypat =         2
  occopt =         1
Pmy_natom=         1
================================================================================
P This job should need less than                       1.785 Mbytes of memory.
  Rough estimation (10% accuracy) of disk space for files :
_ WF disk file :      0.604 Mbytes ; DEN or POT disk file :      0.015 Mbytes.
================================================================================


 DATASET    3 : space group F-4 3 m (#216); Bravais cF (face-center cubic)
================================================================================
 Values of the parameters that define the memory need for DATASET  3 (RF).
   intxc =         0    iscf =         7 xclevel =         1  lmnmax =         8
   lnmax =         4   mband =         4  mffmem =         1   mgfft =        12
P  mkmem =        32  mkqmem =        32  mk1mem =        32 mpssoang=         2
     mpw =        77  mqgrid =      3001   natom =         2    nfft =      1728
    nkpt =       128  nloalg =         4  nspden =         1 nspinor =         1
  nsppol =         1    nsym =        24  n1xccc =         1  ntypat =         2
  occopt =         1
Pmy_natom=         1
================================================================================
P This job should need less than                       1.799 Mbytes of memory.
  Rough estimation (10% accuracy) of disk space for files :
_ WF disk file :      0.604 Mbytes ; DEN or POT disk file :      0.015 Mbytes.
================================================================================


 DATASET    4 : space group F-4 3 m (#216); Bravais cF (face-center cubic)
================================================================================
 Values of the parameters that define the memory need for DATASET  4 (RF).
   intxc =         0    iscf =         7 xclevel =         1  lmnmax =         8
   lnmax =         4   mband =         4  mffmem =         1   mgfft =        12
P  mkmem =        32  mkqmem =        32  mk1mem =        32 mpssoang=         2
     mpw =        77  mqgrid =      3001   natom =         2    nfft =      1728
    nkpt =       128  nloalg =         4  nspden =         1 nspinor =         1
  nsppol =         1    nsym =        24  n1xccc =         1  ntypat =         2
  occopt =         1
Pmy_natom=         1
================================================================================
P This job should need less than                       1.896 Mbytes of memory.
  Rough estimation (10% accuracy) of disk space for files :
_ WF disk file :      0.604 Mbytes ; DEN or POT disk file :      0.015 Mbytes.
================================================================================


 DATASET    5 : space group F-4 3 m (#216); Bravais cF (face-center cubic)
================================================================================
 Values of the parameters that define the memory need for DATASET  5 (RF).
   intxc =         0    iscf =         7 xclevel =         1  lmnmax =         8
   lnmax =         4   mband =         4  mffmem =         1   mgfft =        15
P  mkmem =        64  mkqmem =        64  mk1mem =        64 mpssoang=         2
     mpw =        77  mqgrid =      3001   natom =         2    nfft =      3375
    nkpt =       256  nloalg =         4  nspden =         1 nspinor =         1
  nsppol =         1    nsym =        24  n1xccc =         1  ntypat =         2
  occopt =         1
Pmy_natom=         1
================================================================================
P This job should need less than                       2.973 Mbytes of memory.
  Rough estimation (10% accuracy) of disk space for files :
_ WF disk file :      1.205 Mbytes ; DEN or POT disk file :      0.028 Mbytes.
================================================================================


 DATASET    6 : space group F-4 3 m (#216); Bravais cF (face-center cubic)
================================================================================
 Values of the parameters that define the memory need for DATASET  6 (RF).
   intxc =         0    iscf =         7 xclevel =         1  lmnmax =         8
   lnmax =         4   mband =         4  mffmem =         1   mgfft =        15
P  mkmem =        64  mkqmem =        64  mk1mem =        64 mpssoang=         2
     mpw =        77  mqgrid =      3001   natom =         2    nfft =      3375
    nkpt =       256  nloalg =         4  nspden =         1 nspinor =         1
  nsppol =         1    nsym =        24  n1xccc =         1  ntypat =         2
  occopt =         1
Pmy_natom=         1
================================================================================
P This job should need less than                       2.973 Mbytes of memory.
  Rough estimation (10% accuracy) of disk space for files :
_ WF disk file :      1.205 Mbytes ; DEN or POT disk file :      0.028 Mbytes.
================================================================================

--------------------------------------------------------------------------------
------------- Echo of variables that govern the present computation ------------
--------------------------------------------------------------------------------
-
- outvars: echo of selected default values                                      
-   accesswff0 =  0 , fftalg0 =112 , wfoptalg0 = 10
-
- outvars: echo of global parameters not present in the input file              
-  max_nthreads =    0
-
 -outvars: echo values of preprocessed input variables --------
        accesswff1          1
        accesswff2          0
        accesswff3          0
        accesswff4          0
        accesswff5          0
        accesswff6          0
            acell      1.0610000000E+01  1.0610000000E+01  1.0610000000E+01 Bohr
              amu      2.69815390E+01  7.49215900E+01
        autoparal           1
           diemac      9.00000000E+00
             ecut      3.00000000E+00 Hartree
-          fftalg1        401
-          fftalg2        112
-          fftalg3        112
-          fftalg4        112
-          fftalg5        112
-          fftalg6        112
      fft_opt_lob1          2
      fft_opt_lob2          1
      fft_opt_lob3          1
      fft_opt_lob4          1
      fft_opt_lob5          1
      fft_opt_lob6          1
           getddk1          0
           getddk2          0
           getddk3          2
           getddk4          0
           getddk5          0
           getddk6          0
           getwfk1          0
           getwfk2          1
           getwfk3          1
           getwfk4          1
           getwfk5          1
           getwfk6          1
           iprcch1          6
           iprcch2          2
           iprcch3          2
           iprcch4          2
           iprcch5          2
           iprcch6          2
             iscf1         17
             iscf2         -3
             iscf3          7
             iscf4          7
             iscf5          7
             iscf6          7
              ixc           7
           jdtset        1    2    3    4    5    6
              kpt1    -1.25000000E-01 -2.50000000E-01  0.00000000E+00
                      -1.25000000E-01  5.00000000E-01  0.00000000E+00
                      -2.50000000E-01 -3.75000000E-01  0.00000000E+00
                      -1.25000000E-01 -3.75000000E-01  1.25000000E-01
                      -1.25000000E-01  2.50000000E-01  0.00000000E+00
                      -2.50000000E-01  3.75000000E-01  0.00000000E+00
                      -3.75000000E-01  5.00000000E-01  0.00000000E+00
                      -2.50000000E-01  5.00000000E-01  1.25000000E-01
                      -1.25000000E-01  0.00000000E+00  0.00000000E+00
                      -3.75000000E-01  0.00000000E+00  0.00000000E+00
              kpt2    -1.25000000E-01 -2.50000000E-01  0.00000000E+00
                      -2.50000000E-01 -1.25000000E-01  0.00000000E+00
                      -1.25000000E-01 -1.25000000E-01  1.25000000E-01
                      -1.25000000E-01  5.00000000E-01  0.00000000E+00
                      -2.50000000E-01 -3.75000000E-01  0.00000000E+00
                      -1.25000000E-01 -3.75000000E-01  1.25000000E-01
                      -3.75000000E-01 -2.50000000E-01  0.00000000E+00
                      -2.50000000E-01 -2.50000000E-01  1.25000000E-01
                      -1.25000000E-01 -2.50000000E-01  2.50000000E-01
                       5.00000000E-01 -1.25000000E-01  0.00000000E+00
                      -3.75000000E-01 -1.25000000E-01  1.25000000E-01
                      -2.50000000E-01 -1.25000000E-01  2.50000000E-01
                      -1.25000000E-01 -1.25000000E-01  3.75000000E-01
                      -1.25000000E-01  2.50000000E-01  0.00000000E+00
                      -2.50000000E-01  3.75000000E-01  0.00000000E+00
                      -1.25000000E-01  3.75000000E-01  1.25000000E-01
                      -3.75000000E-01  5.00000000E-01  0.00000000E+00
                      -2.50000000E-01  5.00000000E-01  1.25000000E-01
                      -1.25000000E-01  5.00000000E-01  2.50000000E-01
                       5.00000000E-01 -3.75000000E-01  0.00000000E+00
                      -3.75000000E-01 -3.75000000E-01  1.25000000E-01
                      -2.50000000E-01 -3.75000000E-01  2.50000000E-01
                      -1.25000000E-01 -3.75000000E-01  3.75000000E-01
                       3.75000000E-01 -2.50000000E-01  0.00000000E+00
                       5.00000000E-01 -2.50000000E-01  1.25000000E-01
                      -3.75000000E-01 -2.50000000E-01  2.50000000E-01
                      -2.50000000E-01 -2.50000000E-01  3.75000000E-01
                      -1.25000000E-01 -2.50000000E-01  5.00000000E-01
                       2.50000000E-01 -1.25000000E-01  0.00000000E+00
                       3.75000000E-01 -1.25000000E-01  1.25000000E-01
                       5.00000000E-01 -1.25000000E-01  2.50000000E-01
                      -3.75000000E-01 -1.25000000E-01  3.75000000E-01
                      -2.50000000E-01 -1.25000000E-01  5.00000000E-01
                      -1.25000000E-01 -1.25000000E-01 -3.75000000E-01
                      -1.25000000E-01  0.00000000E+00  0.00000000E+00
                      -1.25000000E-01  1.25000000E-01  1.25000000E-01
                      -2.50000000E-01  2.50000000E-01  1.25000000E-01
                      -1.25000000E-01  2.50000000E-01  2.50000000E-01
                      -3.75000000E-01  3.75000000E-01  1.25000000E-01
                      -2.50000000E-01  3.75000000E-01  2.50000000E-01
                      -1.25000000E-01  3.75000000E-01  3.75000000E-01
                       5.00000000E-01  5.00000000E-01  1.25000000E-01
                      -3.75000000E-01  5.00000000E-01  2.50000000E-01
                      -2.50000000E-01  5.00000000E-01  3.75000000E-01
                      -1.25000000E-01  5.00000000E-01  5.00000000E-01
                       3.75000000E-01 -3.75000000E-01  1.25000000E-01
                       5.00000000E-01 -3.75000000E-01  2.50000000E-01
                      -3.75000000E-01 -3.75000000E-01  3.75000000E-01
                      -2.50000000E-01 -3.75000000E-01  5.00000000E-01
                      -1.25000000E-01 -3.75000000E-01 -3.75000000E-01
              kpt3    -1.25000000E-01 -2.50000000E-01  0.00000000E+00
                      -2.50000000E-01 -1.25000000E-01  0.00000000E+00
                      -1.25000000E-01 -1.25000000E-01  1.25000000E-01
                      -1.25000000E-01  5.00000000E-01  0.00000000E+00
                      -2.50000000E-01 -3.75000000E-01  0.00000000E+00
                      -1.25000000E-01 -3.75000000E-01  1.25000000E-01
                      -3.75000000E-01 -2.50000000E-01  0.00000000E+00
                      -2.50000000E-01 -2.50000000E-01  1.25000000E-01
                      -1.25000000E-01 -2.50000000E-01  2.50000000E-01
                       5.00000000E-01 -1.25000000E-01  0.00000000E+00
                      -3.75000000E-01 -1.25000000E-01  1.25000000E-01
                      -2.50000000E-01 -1.25000000E-01  2.50000000E-01
                      -1.25000000E-01 -1.25000000E-01  3.75000000E-01
                      -1.25000000E-01  2.50000000E-01  0.00000000E+00
                      -2.50000000E-01  3.75000000E-01  0.00000000E+00
                      -1.25000000E-01  3.75000000E-01  1.25000000E-01
                      -3.75000000E-01  5.00000000E-01  0.00000000E+00
                      -2.50000000E-01  5.00000000E-01  1.25000000E-01
                      -1.25000000E-01  5.00000000E-01  2.50000000E-01
                       5.00000000E-01 -3.75000000E-01  0.00000000E+00
                      -3.75000000E-01 -3.75000000E-01  1.25000000E-01
                      -2.50000000E-01 -3.75000000E-01  2.50000000E-01
                      -1.25000000E-01 -3.75000000E-01  3.75000000E-01
                       3.75000000E-01 -2.50000000E-01  0.00000000E+00
                       5.00000000E-01 -2.50000000E-01  1.25000000E-01
                      -3.75000000E-01 -2.50000000E-01  2.50000000E-01
                      -2.50000000E-01 -2.50000000E-01  3.75000000E-01
                      -1.25000000E-01 -2.50000000E-01  5.00000000E-01
                       2.50000000E-01 -1.25000000E-01  0.00000000E+00
                       3.75000000E-01 -1.25000000E-01  1.25000000E-01
                       5.00000000E-01 -1.25000000E-01  2.50000000E-01
                      -3.75000000E-01 -1.25000000E-01  3.75000000E-01
                      -2.50000000E-01 -1.25000000E-01  5.00000000E-01
                      -1.25000000E-01 -1.25000000E-01 -3.75000000E-01
                      -1.25000000E-01  0.00000000E+00  0.00000000E+00
                      -1.25000000E-01  1.25000000E-01  1.25000000E-01
                      -2.50000000E-01  2.50000000E-01  1.25000000E-01
                      -1.25000000E-01  2.50000000E-01  2.50000000E-01
                      -3.75000000E-01  3.75000000E-01  1.25000000E-01
                      -2.50000000E-01  3.75000000E-01  2.50000000E-01
                      -1.25000000E-01  3.75000000E-01  3.75000000E-01
                       5.00000000E-01  5.00000000E-01  1.25000000E-01
                      -3.75000000E-01  5.00000000E-01  2.50000000E-01
                      -2.50000000E-01  5.00000000E-01  3.75000000E-01
                      -1.25000000E-01  5.00000000E-01  5.00000000E-01
                       3.75000000E-01 -3.75000000E-01  1.25000000E-01
                       5.00000000E-01 -3.75000000E-01  2.50000000E-01
                      -3.75000000E-01 -3.75000000E-01  3.75000000E-01
                      -2.50000000E-01 -3.75000000E-01  5.00000000E-01
                      -1.25000000E-01 -3.75000000E-01 -3.75000000E-01
              kpt4    -1.25000000E-01 -2.50000000E-01  0.00000000E+00
                      -2.50000000E-01 -1.25000000E-01  0.00000000E+00
                      -1.25000000E-01 -1.25000000E-01  1.25000000E-01
                      -1.25000000E-01  5.00000000E-01  0.00000000E+00
                      -2.50000000E-01 -3.75000000E-01  0.00000000E+00
                      -1.25000000E-01 -3.75000000E-01  1.25000000E-01
                      -3.75000000E-01 -2.50000000E-01  0.00000000E+00
                      -2.50000000E-01 -2.50000000E-01  1.25000000E-01
                      -1.25000000E-01 -2.50000000E-01  2.50000000E-01
                       5.00000000E-01 -1.25000000E-01  0.00000000E+00
                      -3.75000000E-01 -1.25000000E-01  1.25000000E-01
                      -2.50000000E-01 -1.25000000E-01  2.50000000E-01
                      -1.25000000E-01 -1.25000000E-01  3.75000000E-01
                      -1.25000000E-01  2.50000000E-01  0.00000000E+00
                      -2.50000000E-01  3.75000000E-01  0.00000000E+00
                      -1.25000000E-01  3.75000000E-01  1.25000000E-01
                      -3.75000000E-01  5.00000000E-01  0.00000000E+00
                      -2.50000000E-01  5.00000000E-01  1.25000000E-01
                      -1.25000000E-01  5.00000000E-01  2.50000000E-01
                       5.00000000E-01 -3.75000000E-01  0.00000000E+00
                      -3.75000000E-01 -3.75000000E-01  1.25000000E-01
                      -2.50000000E-01 -3.75000000E-01  2.50000000E-01
                      -1.25000000E-01 -3.75000000E-01  3.75000000E-01
                       3.75000000E-01 -2.50000000E-01  0.00000000E+00
                       5.00000000E-01 -2.50000000E-01  1.25000000E-01
                      -3.75000000E-01 -2.50000000E-01  2.50000000E-01
                      -2.50000000E-01 -2.50000000E-01  3.75000000E-01
                      -1.25000000E-01 -2.50000000E-01  5.00000000E-01
                       2.50000000E-01 -1.25000000E-01  0.00000000E+00
                       3.75000000E-01 -1.25000000E-01  1.25000000E-01
                       5.00000000E-01 -1.25000000E-01  2.50000000E-01
                      -3.75000000E-01 -1.25000000E-01  3.75000000E-01
                      -2.50000000E-01 -1.25000000E-01  5.00000000E-01
                      -1.25000000E-01 -1.25000000E-01 -3.75000000E-01
                      -1.25000000E-01  0.00000000E+00  0.00000000E+00
                      -1.25000000E-01  1.25000000E-01  1.25000000E-01
                      -2.50000000E-01  2.50000000E-01  1.25000000E-01
                      -1.25000000E-01  2.50000000E-01  2.50000000E-01
                      -3.75000000E-01  3.75000000E-01  1.25000000E-01
                      -2.50000000E-01  3.75000000E-01  2.50000000E-01
                      -1.25000000E-01  3.75000000E-01  3.75000000E-01
                       5.00000000E-01  5.00000000E-01  1.25000000E-01
                      -3.75000000E-01  5.00000000E-01  2.50000000E-01
                      -2.50000000E-01  5.00000000E-01  3.75000000E-01
                      -1.25000000E-01  5.00000000E-01  5.00000000E-01
                       3.75000000E-01 -3.75000000E-01  1.25000000E-01
                       5.00000000E-01 -3.75000000E-01  2.50000000E-01
                      -3.75000000E-01 -3.75000000E-01  3.75000000E-01
                      -2.50000000E-01 -3.75000000E-01  5.00000000E-01
                      -1.25000000E-01 -3.75000000E-01 -3.75000000E-01
              kpt5    -1.25000000E-01 -2.50000000E-01  0.00000000E+00
                      -2.50000000E-01 -1.25000000E-01  0.00000000E+00
                      -1.25000000E-01 -1.25000000E-01  1.25000000E-01
                      -1.25000000E-01  5.00000000E-01  0.00000000E+00
                      -2.50000000E-01 -3.75000000E-01  0.00000000E+00
                      -1.25000000E-01 -3.75000000E-01  1.25000000E-01
                      -3.75000000E-01 -2.50000000E-01  0.00000000E+00
                      -2.50000000E-01 -2.50000000E-01  1.25000000E-01
                      -1.25000000E-01 -2.50000000E-01  2.50000000E-01
                       5.00000000E-01 -1.25000000E-01  0.00000000E+00
                      -3.75000000E-01 -1.25000000E-01  1.25000000E-01
                      -2.50000000E-01 -1.25000000E-01  2.50000000E-01
                      -1.25000000E-01 -1.25000000E-01  3.75000000E-01
                      -1.25000000E-01  2.50000000E-01  0.00000000E+00
                      -2.50000000E-01  3.75000000E-01  0.00000000E+00
                      -1.25000000E-01  3.75000000E-01  1.25000000E-01
                      -3.75000000E-01  5.00000000E-01  0.00000000E+00
                      -2.50000000E-01  5.00000000E-01  1.25000000E-01
                      -1.25000000E-01  5.00000000E-01  2.50000000E-01
                       5.00000000E-01 -3.75000000E-01  0.00000000E+00
                      -3.75000000E-01 -3.75000000E-01  1.25000000E-01
                      -2.50000000E-01 -3.75000000E-01  2.50000000E-01
                      -1.25000000E-01 -3.75000000E-01  3.75000000E-01
                       3.75000000E-01 -2.50000000E-01  0.00000000E+00
                       5.00000000E-01 -2.50000000E-01  1.25000000E-01
                      -3.75000000E-01 -2.50000000E-01  2.50000000E-01
                      -2.50000000E-01 -2.50000000E-01  3.75000000E-01
                      -1.25000000E-01 -2.50000000E-01  5.00000000E-01
                       2.50000000E-01 -1.25000000E-01  0.00000000E+00
                       3.75000000E-01 -1.25000000E-01  1.25000000E-01
                       5.00000000E-01 -1.25000000E-01  2.50000000E-01
                      -3.75000000E-01 -1.25000000E-01  3.75000000E-01
                      -2.50000000E-01 -1.25000000E-01  5.00000000E-01
                      -1.25000000E-01 -1.25000000E-01 -3.75000000E-01
                      -1.25000000E-01  0.00000000E+00  0.00000000E+00
                      -2.50000000E-01  1.25000000E-01  0.00000000E+00
                      -1.25000000E-01  1.25000000E-01  1.25000000E-01
                      -3.75000000E-01  2.50000000E-01  0.00000000E+00
                      -2.50000000E-01  2.50000000E-01  1.25000000E-01
                      -1.25000000E-01  2.50000000E-01  2.50000000E-01
                       5.00000000E-01  3.75000000E-01  0.00000000E+00
                      -3.75000000E-01  3.75000000E-01  1.25000000E-01
                      -2.50000000E-01  3.75000000E-01  2.50000000E-01
                      -1.25000000E-01  3.75000000E-01  3.75000000E-01
                       3.75000000E-01  5.00000000E-01  0.00000000E+00
                       5.00000000E-01  5.00000000E-01  1.25000000E-01
                      -3.75000000E-01  5.00000000E-01  2.50000000E-01
                      -2.50000000E-01  5.00000000E-01  3.75000000E-01
                      -1.25000000E-01  5.00000000E-01  5.00000000E-01
                       2.50000000E-01 -3.75000000E-01  0.00000000E+00
              kpt6    -1.25000000E-01 -2.50000000E-01  0.00000000E+00
                      -2.50000000E-01 -1.25000000E-01  0.00000000E+00
                      -1.25000000E-01 -1.25000000E-01  1.25000000E-01
                      -1.25000000E-01  5.00000000E-01  0.00000000E+00
                      -2.50000000E-01 -3.75000000E-01  0.00000000E+00
                      -1.25000000E-01 -3.75000000E-01  1.25000000E-01
                      -3.75000000E-01 -2.50000000E-01  0.00000000E+00
                      -2.50000000E-01 -2.50000000E-01  1.25000000E-01
                      -1.25000000E-01 -2.50000000E-01  2.50000000E-01
                       5.00000000E-01 -1.25000000E-01  0.00000000E+00
                      -3.75000000E-01 -1.25000000E-01  1.25000000E-01
                      -2.50000000E-01 -1.25000000E-01  2.50000000E-01
                      -1.25000000E-01 -1.25000000E-01  3.75000000E-01
                      -1.25000000E-01  2.50000000E-01  0.00000000E+00
                      -2.50000000E-01  3.75000000E-01  0.00000000E+00
                      -1.25000000E-01  3.75000000E-01  1.25000000E-01
                      -3.75000000E-01  5.00000000E-01  0.00000000E+00
                      -2.50000000E-01  5.00000000E-01  1.25000000E-01
                      -1.25000000E-01  5.00000000E-01  2.50000000E-01
                       5.00000000E-01 -3.75000000E-01  0.00000000E+00
                      -3.75000000E-01 -3.75000000E-01  1.25000000E-01
                      -2.50000000E-01 -3.75000000E-01  2.50000000E-01
                      -1.25000000E-01 -3.75000000E-01  3.75000000E-01
                       3.75000000E-01 -2.50000000E-01  0.00000000E+00
                       5.00000000E-01 -2.50000000E-01  1.25000000E-01
                      -3.75000000E-01 -2.50000000E-01  2.50000000E-01
                      -2.50000000E-01 -2.50000000E-01  3.75000000E-01
                      -1.25000000E-01 -2.50000000E-01  5.00000000E-01
                       2.50000000E-01 -1.25000000E-01  0.00000000E+00
                       3.75000000E-01 -1.25000000E-01  1.25000000E-01
                       5.00000000E-01 -1.25000000E-01  2.50000000E-01
                      -3.75000000E-01 -1.25000000E-01  3.75000000E-01
                      -2.50000000E-01 -1.25000000E-01  5.00000000E-01
                      -1.25000000E-01 -1.25000000E-01 -3.75000000E-01
                      -1.25000000E-01  0.00000000E+00  0.00000000E+00
                      -2.50000000E-01  1.25000000E-01  0.00000000E+00
                      -1.25000000E-01  1.25000000E-01  1.25000000E-01
                      -3.75000000E-01  2.50000000E-01  0.00000000E+00
                      -2.50000000E-01  2.50000000E-01  1.25000000E-01
                      -1.25000000E-01  2.50000000E-01  2.50000000E-01
                       5.00000000E-01  3.75000000E-01  0.00000000E+00
                      -3.75000000E-01  3.75000000E-01  1.25000000E-01
                      -2.50000000E-01  3.75000000E-01  2.50000000E-01
                      -1.25000000E-01  3.75000000E-01  3.75000000E-01
                       3.75000000E-01  5.00000000E-01  0.00000000E+00
                       5.00000000E-01  5.00000000E-01  1.25000000E-01
                      -3.75000000E-01  5.00000000E-01  2.50000000E-01
                      -2.50000000E-01  5.00000000E-01  3.75000000E-01
                      -1.25000000E-01  5.00000000E-01  5.00000000E-01
                       2.50000000E-01 -3.75000000E-01  0.00000000E+00
                       outvar_i_n : Printing only first  50 k-points.
           kptopt1          1
           kptopt2          2
           kptopt3          2
           kptopt4          2
           kptopt5          3
           kptopt6          3
         kptrlatt        4   -4    4     -4    4    4     -4   -4    4
          kptrlen      4.24400000E+01
P           mkmem1          5
P           mkmem2         32
P           mkmem3         32
P           mkmem4         32
P           mkmem5         64
P           mkmem6         64
P          mkqmem1          5
P          mkqmem2         32
P          mkqmem3         32
P          mkqmem4         32
P          mkqmem5         64
P          mkqmem6         64
P          mk1mem1          5
P          mk1mem2         32
P          mk1mem3         32
P          mk1mem4         32
P          mk1mem5         64
P          mk1mem6         64
            natom           2
            nband1          4
            nband2          4
            nband3          4
            nband4          4
            nband5          4
            nband6          4
           ndtset           6
            ngfft1         12      12      12
            ngfft2         12      12      12
            ngfft3         12      12      12
            ngfft4         12      12      12
            ngfft5         15      15      15
            ngfft6         15      15      15
          ngfftdg          24      24      24
             nkpt1         10
             nkpt2        128
             nkpt3        128
             nkpt4        128
             nkpt5        256
             nkpt6        256
-           npfft1          2
-           npfft2          1
-           npfft3          1
-           npfft4          1
-           npfft5          1
-           npfft6          1
-           npkpt1          2
-           npkpt2          1
-           npkpt3          1
-           npkpt4          1
-           npkpt5          1
-           npkpt6          1
-          nppert1          1
-          nppert2          1
-          nppert3          1
-          nppert4          2
-          nppert5          2
-          nppert6          2
             nqpt1          0
             nqpt2          1
             nqpt3          1
             nqpt4          1
             nqpt5          1
             nqpt6          1
            nstep          25
             nsym          24
           ntypat           2
              occ1     2.000000  2.000000  2.000000  2.000000
              occ2     2.000000  2.000000  2.000000  2.000000
              occ3     2.000000  2.000000  2.000000  2.000000
              occ4     2.000000  2.000000  2.000000  2.000000
              occ5     2.000000  2.000000  2.000000  2.000000
              occ6     2.000000  2.000000  2.000000  2.000000
        optdriver1          0
        optdriver2          1
        optdriver3          1
        optdriver4          1
        optdriver5          1
        optdriver6          1
        paral_kgb1          1
        paral_kgb2          0
        paral_kgb3          0
        paral_kgb4          0
        paral_kgb5          0
        paral_kgb6          0
         paral_rf1          0
         paral_rf2          0
         paral_rf3          0
         paral_rf4          1
         paral_rf5          1
         paral_rf6          1
        pawecutdg      9.00000000E+00 Hartree
         pawmixdg1          1
         pawmixdg2          0
         pawmixdg3          0
         pawmixdg4          0
         pawmixdg5          0
         pawmixdg6          0
         pawxcdev           0
              qpt1     0.00000000E+00  0.00000000E+00  0.00000000E+00
              qpt2     0.00000000E+00  0.00000000E+00  0.00000000E+00
              qpt3     0.00000000E+00  0.00000000E+00  0.00000000E+00
              qpt4     0.00000000E+00  0.00000000E+00  0.00000000E+00
              qpt5     2.50000000E-01  0.00000000E+00  0.00000000E+00
              qpt6    -2.50000000E-01  5.00000000E-01  2.50000000E-01
          rfatpol           1       2
            rfdir           1       1       1
           rfelfd1          0
           rfelfd2          2
           rfelfd3          3
           rfelfd4          0
           rfelfd5          0
           rfelfd6          0
           rfphon1          0
           rfphon2          0
           rfphon3          0
           rfphon4          1
           rfphon5          1
           rfphon6          1
            rprim      0.0000000000E+00  5.0000000000E-01  5.0000000000E-01
                       5.0000000000E-01  0.0000000000E+00  5.0000000000E-01
                       5.0000000000E-01  5.0000000000E-01  0.0000000000E+00
           shiftk      5.00000000E-01  5.00000000E-01  5.00000000E-01
          spgroup         216
           symrel      1  0  0   0  1  0   0  0  1       0 -1  1   0 -1  0   1 -1  0
                      -1  0  0  -1  0  1  -1  1  0       0  1 -1   1  0 -1   0  0 -1
                      -1  0  0  -1  1  0  -1  0  1       0 -1  1   1 -1  0   0 -1  0
                       1  0  0   0  0  1   0  1  0       0  1 -1   0  0 -1   1  0 -1
                      -1  0  1  -1  1  0  -1  0  0       0 -1  0   1 -1  0   0 -1  1
                       1  0 -1   0  0 -1   0  1 -1       0  1  0   0  0  1   1  0  0
                       1  0 -1   0  1 -1   0  0 -1       0 -1  0   0 -1  1   1 -1  0
                      -1  0  1  -1  0  0  -1  1  0       0  1  0   1  0  0   0  0  1
                       0  0 -1   0  1 -1   1  0 -1       1 -1  0   0 -1  1   0 -1  0
                       0  0  1   1  0  0   0  1  0      -1  1  0  -1  0  0  -1  0  1
                       0  0  1   0  1  0   1  0  0       1 -1  0   0 -1  0   0 -1  1
                       0  0 -1   1  0 -1   0  1 -1      -1  1  0  -1  0  1  -1  0  0
           tolvrs1     1.00000000E-15
           tolvrs2     1.00000000E-08
           tolvrs3     1.00000000E-08
           tolvrs4     1.00000000E-08
           tolvrs5     1.00000000E-08
           tolvrs6     1.00000000E-08
            typat      1  2
           useylm           1
         wfoptalg1         14
         wfoptalg2         10
         wfoptalg3         10
         wfoptalg4         10
         wfoptalg5         10
         wfoptalg6         10
              wtk1       0.09375    0.09375    0.09375    0.18750    0.09375    0.09375
                         0.09375    0.18750    0.03125    0.03125
              wtk2       0.00781    0.00781    0.00781    0.00781    0.00781    0.00781
                         0.00781    0.00781    0.00781    0.00781    0.00781    0.00781
                         0.00781    0.00781    0.00781    0.00781    0.00781    0.00781
                         0.00781    0.00781    0.00781    0.00781    0.00781    0.00781
                         0.00781    0.00781    0.00781    0.00781    0.00781    0.00781
                         0.00781    0.00781    0.00781    0.00781    0.00781    0.00781
                         0.00781    0.00781    0.00781    0.00781    0.00781    0.00781
                         0.00781    0.00781    0.00781    0.00781    0.00781    0.00781
                         0.00781    0.00781
              wtk3       0.00781    0.00781    0.00781    0.00781    0.00781    0.00781
                         0.00781    0.00781    0.00781    0.00781    0.00781    0.00781
                         0.00781    0.00781    0.00781    0.00781    0.00781    0.00781
                         0.00781    0.00781    0.00781    0.00781    0.00781    0.00781
                         0.00781    0.00781    0.00781    0.00781    0.00781    0.00781
                         0.00781    0.00781    0.00781    0.00781    0.00781    0.00781
                         0.00781    0.00781    0.00781    0.00781    0.00781    0.00781
                         0.00781    0.00781    0.00781    0.00781    0.00781    0.00781
                         0.00781    0.00781
              wtk4       0.00781    0.00781    0.00781    0.00781    0.00781    0.00781
                         0.00781    0.00781    0.00781    0.00781    0.00781    0.00781
                         0.00781    0.00781    0.00781    0.00781    0.00781    0.00781
                         0.00781    0.00781    0.00781    0.00781    0.00781    0.00781
                         0.00781    0.00781    0.00781    0.00781    0.00781    0.00781
                         0.00781    0.00781    0.00781    0.00781    0.00781    0.00781
                         0.00781    0.00781    0.00781    0.00781    0.00781    0.00781
                         0.00781    0.00781    0.00781    0.00781    0.00781    0.00781
                         0.00781    0.00781
              wtk5       0.00391    0.00391    0.00391    0.00391    0.00391    0.00391
                         0.00391    0.00391    0.00391    0.00391    0.00391    0.00391
                         0.00391    0.00391    0.00391    0.00391    0.00391    0.00391
                         0.00391    0.00391    0.00391    0.00391    0.00391    0.00391
                         0.00391    0.00391    0.00391    0.00391    0.00391    0.00391
                         0.00391    0.00391    0.00391    0.00391    0.00391    0.00391
                         0.00391    0.00391    0.00391    0.00391    0.00391    0.00391
                         0.00391    0.00391    0.00391    0.00391    0.00391    0.00391
                         0.00391    0.00391
              wtk6       0.00391    0.00391    0.00391    0.00391    0.00391    0.00391
                         0.00391    0.00391    0.00391    0.00391    0.00391    0.00391
                         0.00391    0.00391    0.00391    0.00391    0.00391    0.00391
                         0.00391    0.00391    0.00391    0.00391    0.00391    0.00391
                         0.00391    0.00391    0.00391    0.00391    0.00391    0.00391
                         0.00391    0.00391    0.00391    0.00391    0.00391    0.00391
                         0.00391    0.00391    0.00391    0.00391    0.00391    0.00391
                         0.00391    0.00391    0.00391    0.00391    0.00391    0.00391
                         0.00391    0.00391
                       outvars : Printing only first  50 k-points.
           xangst      0.0000000000E+00  0.0000000000E+00  0.0000000000E+00
                       1.4036425458E+00  1.4036425458E+00  1.4036425458E+00
            xcart      0.0000000000E+00  0.0000000000E+00  0.0000000000E+00
                       2.6525000000E+00  2.6525000000E+00  2.6525000000E+00
             xred      0.0000000000E+00  0.0000000000E+00  0.0000000000E+00
                       2.5000000000E-01  2.5000000000E-01  2.5000000000E-01
            znucl       13.00000   33.00000

================================================================================

 chkinp: Checking input parameters for consistency, jdtset=   1.

 chkinp: Checking input parameters for consistency, jdtset=   2.

 chkinp: Checking input parameters for consistency, jdtset=   3.

 chkinp: Checking input parameters for consistency, jdtset=   4.

 chkinp: Checking input parameters for consistency, jdtset=   5.

 chkinp: Checking input parameters for consistency, jdtset=   6.

================================================================================
== DATASET  1 ==================================================================
-   nproc =    4

 Exchange-correlation functional for the present dataset will be:
  LDA: Perdew-Wang 92 LSD fit to Ceperley-Alder data - ixc=7
 Citation for XC functional:
  J.P.Perdew and Y.Wang, PRB 45, 13244 (1992)

 Real(R)+Recip(G) space primitive vectors, cartesian coordinates (Bohr,Bohr^-1):
 R(1)=  0.0000000  5.3050000  5.3050000  G(1)= -0.0942507  0.0942507  0.0942507
 R(2)=  5.3050000  0.0000000  5.3050000  G(2)=  0.0942507 -0.0942507  0.0942507
 R(3)=  5.3050000  5.3050000  0.0000000  G(3)=  0.0942507  0.0942507 -0.0942507
 Unit cell volume ucvol=  2.9859750E+02 bohr^3
 Angles (23,13,12)=  6.00000000E+01  6.00000000E+01  6.00000000E+01 degrees

 Coarse grid specifications (used for wave-functions):

 getcut: wavevector=  0.0000  0.0000  0.0000  ngfft=  12  12  12
         ecut(hartree)=      3.000   => boxcut(ratio)=   2.05142

 Fine grid specifications (used for densities):

 getcut: wavevector=  0.0000  0.0000  0.0000  ngfft=  24  24  24
         ecut(hartree)=      9.000   => boxcut(ratio)=   2.36878

 getcut : COMMENT -
  Note that boxcut > 2.2 ; recall that boxcut=Gcut(box)/Gcut(sphere) = 2
  is sufficient for exact treatment of convolution.
  Such a large boxcut is a waste : you could raise ecut
  e.g. ecut=   12.625002 Hartrees makes boxcut=2


--- Pseudopotential description ------------------------------------------------
- pspini: atom type   1  psp file is /data/ABINIT/testf_gcc47/trunk_7.10.4-training/tests/Psps_for_tests/al_ps.abinit.paw
- pspatm: opening atomic psp file    /data/ABINIT/testf_gcc47/trunk_7.10.4-training/tests/Psps_for_tests/al_ps.abinit.paw
- Paw atomic data for element Al - Generated by AtomPAW + AtomPAW2Abinit v3.2.1
- 13.00000   3.00000  20091223                znucl, zion, pspdat
    7    7    1    0       473   0.00000      pspcod,pspxc,lmax,lloc,mmax,r2well
 Pseudopotential format is: paw4
 basis_size (lnmax)=  4 (lmn_size=  8), orbitals=   0   0   1   1
 Spheres core radius: rc_sph= 2.01466516
 4 radial meshes are used:
  - mesh 1: r(i)=AA*[exp(BB*(i-1))-1], size= 473 , AA= 0.12205E-02 BB= 0.15866E-01
  - mesh 2: r(i)=AA*[exp(BB*(i-1))-1], size= 468 , AA= 0.12205E-02 BB= 0.15866E-01
  - mesh 3: r(i)=AA*[exp(BB*(i-1))-1], size= 521 , AA= 0.12205E-02 BB= 0.15866E-01
  - mesh 4: r(i)=AA*[exp(BB*(i-1))-1], size= 569 , AA= 0.12205E-02 BB= 0.15866E-01
 Shapefunction is SIN type: shapef(r)=[sin(pi*r/rshp)/(pi*r/rshp)]**2
 Radius for shape functions = sphere core radius
 Radial grid used for partial waves is grid 1
 Radial grid used for projectors is grid  2
 Radial grid used for (t)core density is grid 3
 Radial grid used for Vloc is grid 4
 Radial grid used for pseudo valence density is grid 4
 Compensation charge density is taken into account in XC energy/potential
 pspatm: atomic psp has been read  and splines computed

- pspini: atom type   2  psp file is /data/ABINIT/testf_gcc47/trunk_7.10.4-training/tests/Psps_for_tests/as_ps.paw
- pspatm: opening atomic psp file    /data/ABINIT/testf_gcc47/trunk_7.10.4-training/tests/Psps_for_tests/as_ps.paw
- Paw atomic data for element As - Generated by AtomPAW + AtomPAW2Abinit v3.2.0
- 33.00000   5.00000  20090611                znucl, zion, pspdat
    7    7    1    0       495   0.00000      pspcod,pspxc,lmax,lloc,mmax,r2well
 Pseudopotential format is: paw4
 basis_size (lnmax)=  4 (lmn_size=  8), orbitals=   0   0   1   1
 Spheres core radius: rc_sph= 2.20863348
 4 radial meshes are used:
  - mesh 1: r(i)=AA*[exp(BB*(i-1))-1], size= 495 , AA= 0.51795E-03 BB= 0.17092E-01
  - mesh 2: r(i)=AA*[exp(BB*(i-1))-1], size= 501 , AA= 0.51795E-03 BB= 0.17092E-01
  - mesh 3: r(i)=AA*[exp(BB*(i-1))-1], size= 546 , AA= 0.51795E-03 BB= 0.17092E-01
  - mesh 4: r(i)=AA*[exp(BB*(i-1))-1], size= 578 , AA= 0.51795E-03 BB= 0.17092E-01
 Shapefunction is SIN type: shapef(r)=[sin(pi*r/rshp)/(pi*r/rshp)]**2
 Radius for shape functions = sphere core radius
 Radial grid used for partial waves is grid 1
 Radial grid used for projectors is grid  2
 Radial grid used for (t)core density is grid 3
 Radial grid used for Vloc is grid 4
 Radial grid used for pseudo valence density is grid 4
 Compensation charge density is taken into account in XC energy/potential
 pspatm: atomic psp has been read  and splines computed

   2.11748330E+02                                ecore*ucvol(ha*bohr**3)
--------------------------------------------------------------------------------

P newkpt: treating      4 bands with npw=      37 for ikpt=   1 by node    0
P newkpt: treating      4 bands with npw=      37 for ikpt=   2 by node    0
P newkpt: treating      4 bands with npw=      41 for ikpt=   3 by node    0
P newkpt: treating      4 bands with npw=      39 for ikpt=   4 by node    0
P newkpt: treating      4 bands with npw=      38 for ikpt=   5 by node    0
P newkpt: treating      4 bands with npw=      37 for ikpt=   6 by node    1
P newkpt: treating      4 bands with npw=      37 for ikpt=   7 by node    1
P newkpt: treating      4 bands with npw=      37 for ikpt=   8 by node    1
P newkpt: treating      4 bands with npw=      33 for ikpt=   9 by node    1
P newkpt: treating      4 bands with npw=      40 for ikpt=  10 by node    1

_setup2: Arith. and geom. avg. npw (full set) are      37.813      37.780

================================================================================

     iter   Etot(hartree)      deltaE(h)  residm     nres2
 ETOT  1  -8.5705728449537    -8.571E+00 1.479E-04 6.724E-01
 ETOT  2  -8.5626664037447     7.906E-03 1.748E-09 9.178E-02
 ETOT  3  -8.5615612101290     1.105E-03 5.043E-08 8.147E-04
 ETOT  4  -8.5615675525782    -6.342E-06 3.303E-10 7.124E-05
 ETOT  5  -8.5615692420638    -1.689E-06 2.239E-10 1.395E-06
 ETOT  6  -8.5615692598504    -1.779E-08 9.259E-12 5.271E-08
 ETOT  7  -8.5615692601284    -2.780E-10 4.942E-13 2.258E-09
 ETOT  8  -8.5615692600593     6.915E-11 7.391E-15 1.421E-10
 ETOT  9  -8.5615692600522     7.136E-12 4.773E-16 2.876E-12
 ETOT 10  -8.5615692600520     1.830E-13 3.893E-18 4.331E-14
 ETOT 11  -8.5615692600518     2.114E-13 8.226E-19 8.540E-16

 At SCF step   11       nres2   =  8.54E-16 < tolvrs=  1.00E-15 =>converged.

 Cartesian components of stress tensor (hartree/bohr^3)
  sigma(1 1)=  2.59935833E-04  sigma(3 2)=  0.00000000E+00
  sigma(2 2)=  2.59935833E-04  sigma(3 1)=  0.00000000E+00
  sigma(3 3)=  2.59935833E-04  sigma(2 1)=  0.00000000E+00


 PAW TEST:
 ==== Compensation charge inside spheres ============
 The following values must be close to each other ...
 Compensation charge over spherical meshes =     -0.914678689301291
 Compensation charge over fine fft grid    =     -0.914675800604539

 ==== Results concerning PAW augmentation regions ====

 Total pseudopotential strength Dij (hartree):
 Atom #  1
   0.35174   0.00125   0.00000   0.00000   0.00000   0.00000   0.00000   0.00000
   0.00125  12.93410   0.00000   0.00000   0.00000   0.00000   0.00000   0.00000
   0.00000   0.00000   0.07804   0.00000   0.00000  -0.01057   0.00000   0.00000
   0.00000   0.00000   0.00000   0.07804   0.00000   0.00000  -0.01057   0.00000
   0.00000   0.00000   0.00000   0.00000   0.07804   0.00000   0.00000  -0.01057
   0.00000   0.00000  -0.01057   0.00000   0.00000   0.09962   0.00000   0.00000
   0.00000   0.00000   0.00000  -0.01057   0.00000   0.00000   0.09962   0.00000
   0.00000   0.00000   0.00000   0.00000  -0.01057   0.00000   0.00000   0.09962
 Atom #  2
   0.26685  -0.06136   0.00000   0.00000   0.00000   0.00000   0.00000   0.00000
  -0.06136   1.30418   0.00000   0.00000   0.00000   0.00000   0.00000   0.00000
   0.00000   0.00000  -0.03810   0.00000   0.00000  -0.00624   0.00000   0.00000
   0.00000   0.00000   0.00000  -0.03810   0.00000   0.00000  -0.00624   0.00000
   0.00000   0.00000   0.00000   0.00000  -0.03810   0.00000   0.00000  -0.00624
   0.00000   0.00000  -0.00624   0.00000   0.00000  -0.15381   0.00000   0.00000
   0.00000   0.00000   0.00000  -0.00624   0.00000   0.00000  -0.15381   0.00000
   0.00000   0.00000   0.00000   0.00000  -0.00624   0.00000   0.00000  -0.15381


 Augmentation waves occupancies Rhoij:
 Atom #  1
   1.27427  -0.00155   0.00000   0.00000   0.00000   0.00000   0.00000   0.00000
  -0.00155   0.00002   0.00000   0.00000   0.00000   0.00000   0.00000   0.00000
   0.00000   0.00000   0.84691   0.00000   0.00000  -0.01345   0.00000   0.00000
   0.00000   0.00000   0.00000   0.84691   0.00000   0.00000  -0.01345   0.00000
   0.00000   0.00000   0.00000   0.00000   0.84691   0.00000   0.00000  -0.01345
   0.00000   0.00000  -0.01345   0.00000   0.00000   0.00024   0.00000   0.00000
   0.00000   0.00000   0.00000  -0.01345   0.00000   0.00000   0.00024   0.00000
   0.00000   0.00000   0.00000   0.00000  -0.01345   0.00000   0.00000   0.00024
 Atom #  2
   1.79075   0.03625   0.00000   0.00000   0.00000   0.00000   0.00000   0.00000
   0.03625   0.00104   0.00000   0.00000   0.00000   0.00000   0.00000   0.00000
   0.00000   0.00000   0.74400   0.00000   0.00000   0.05902   0.00000   0.00000
   0.00000   0.00000   0.00000   0.74400   0.00000   0.00000   0.05902   0.00000
   0.00000   0.00000   0.00000   0.00000   0.74400   0.00000   0.00000   0.05902
   0.00000   0.00000   0.05902   0.00000   0.00000   0.00475   0.00000   0.00000
   0.00000   0.00000   0.00000   0.05902   0.00000   0.00000   0.00475   0.00000
   0.00000   0.00000   0.00000   0.00000   0.05902   0.00000   0.00000   0.00475


================================================================================

 ----iterations are completed or convergence reached----

 Mean square residual over all n,k,spin=   1.2511E-19; max=  8.2257E-19
  -0.1250 -0.2500  0.0000    1  2.12553E-19 kpt; spin; max resid(k); each band:
  6.24E-21 2.13E-19 1.57E-21 1.47E-19
  -0.1250  0.5000  0.0000    1  1.46893E-19 kpt; spin; max resid(k); each band:
  4.05E-20 1.47E-19 7.52E-20 3.62E-21
  -0.2500 -0.3750  0.0000    1  3.29471E-19 kpt; spin; max resid(k); each band:
  1.56E-20 3.29E-19 1.64E-19 1.13E-21
  -0.1250 -0.3750  0.1250    1  6.71887E-19 kpt; spin; max resid(k); each band:
  2.22E-20 6.72E-19 2.01E-19 7.96E-20
  -0.1250  0.2500  0.0000    1  3.68605E-19 kpt; spin; max resid(k); each band:
  1.33E-20 3.69E-19 1.33E-19 1.11E-20
  -0.2500  0.3750  0.0000    1  8.22569E-19 kpt; spin; max resid(k); each band:
  2.55E-20 8.23E-19 1.55E-19 2.35E-21
  -0.3750  0.5000  0.0000    1  1.94686E-19 kpt; spin; max resid(k); each band:
  1.93E-20 1.95E-19 1.02E-19 6.55E-22
  -0.2500  0.5000  0.1250    1  5.91403E-19 kpt; spin; max resid(k); each band:
  1.54E-20 5.91E-19 1.80E-19 6.23E-20
  -0.1250  0.0000  0.0000    1  4.41551E-20 kpt; spin; max resid(k); each band:
  1.97E-21 4.42E-20 7.43E-21 9.25E-21
  -0.3750  0.0000  0.0000    1  4.24853E-20 kpt; spin; max resid(k); each band:
  3.14E-20 1.58E-20 3.62E-20 4.25E-20
 reduced coordinates (array xred) for    2 atoms
       0.000000000000      0.000000000000      0.000000000000
       0.250000000000      0.250000000000      0.250000000000
 rms dE/dt=  0.0000E+00; max dE/dt=  0.0000E+00; dE/dt below (all hartree)
    1       0.000000000000      0.000000000000      0.000000000000
    2       0.000000000000      0.000000000000      0.000000000000

 cartesian coordinates (angstrom) at end:
    1      0.00000000000000     0.00000000000000     0.00000000000000
    2      1.40364254578497     1.40364254578497     1.40364254578497

 cartesian forces (hartree/bohr) at end:
    1     -0.00000000000000    -0.00000000000000    -0.00000000000000
    2     -0.00000000000000    -0.00000000000000    -0.00000000000000
 frms,max,avg= 0.0000000E+00 0.0000000E+00   0.000E+00  0.000E+00  0.000E+00 h/b

 cartesian forces (eV/Angstrom) at end:
    1     -0.00000000000000    -0.00000000000000    -0.00000000000000
    2     -0.00000000000000    -0.00000000000000    -0.00000000000000
 frms,max,avg= 0.0000000E+00 0.0000000E+00   0.000E+00  0.000E+00  0.000E+00 e/A
 length scales= 10.610000000000 10.610000000000 10.610000000000 bohr
              =  5.614570183140  5.614570183140  5.614570183140 angstroms
 prteigrs : about to open file t62_MPI4o_DS1_EIG
 Fermi (or HOMO) energy (hartree) =   0.09461   Average Vxc (hartree)=  -0.32833
 Eigenvalues (hartree) for nkpt=  10  k points:
 kpt#   1, nband=  4, wtk=  0.09375, kpt= -0.1250 -0.2500  0.0000 (reduced coord)
  -0.32419  -0.01211   0.06468   0.06698
 kpt#   2, nband=  4, wtk=  0.09375, kpt= -0.1250  0.5000  0.0000 (reduced coord)
  -0.28771  -0.10904   0.03218   0.05566
 kpt#   3, nband=  4, wtk=  0.09375, kpt= -0.2500 -0.3750  0.0000 (reduced coord)
  -0.29868  -0.06342   0.01970   0.03424
 kpt#   4, nband=  4, wtk=  0.18750, kpt= -0.1250 -0.3750  0.1250 (reduced coord)
  -0.29032  -0.08478  -0.00185   0.04400
 kpt#   5, nband=  4, wtk=  0.09375, kpt= -0.1250  0.2500  0.0000 (reduced coord)
  -0.31160  -0.05441   0.03212   0.07945
 kpt#   6, nband=  4, wtk=  0.09375, kpt= -0.2500  0.3750  0.0000 (reduced coord)
  -0.27880  -0.09824  -0.02524   0.04444
 kpt#   7, nband=  4, wtk=  0.09375, kpt= -0.3750  0.5000  0.0000 (reduced coord)
  -0.27294  -0.10009  -0.00622   0.01865
 kpt#   8, nband=  4, wtk=  0.18750, kpt= -0.2500  0.5000  0.1250 (reduced coord)
  -0.27155  -0.09635  -0.02808   0.01022
 kpt#   9, nband=  4, wtk=  0.03125, kpt= -0.1250  0.0000  0.0000 (reduced coord)
  -0.33869   0.04641   0.09461   0.09461
 kpt#  10, nband=  4, wtk=  0.03125, kpt= -0.3750  0.0000  0.0000 (reduced coord)
  -0.30178  -0.09174   0.06972   0.06972
 Total charge density [el/Bohr^3]
,     Maximum=    9.5313E-02  at reduced coord.    0.1667    0.1667    0.0000
,Next maximum=    9.5313E-02  at reduced coord.    0.5000    0.1667    0.1667
,     Minimum=    1.8083E-04  at reduced coord.    0.0000    0.0000    0.0000
,Next minimum=    2.6127E-03  at reduced coord.    0.0417    0.0000    0.0000
,  Integrated=    8.0000E+00

--------------------------------------------------------------------------------
 Components of total free energy (in Hartree) :

    Kinetic energy  =  3.37453305658670E+00
    Hartree energy  =  7.61107251131752E-01
    XC energy       = -2.67247585436178E+00
    Ewald energy    = -8.47989583509473E+00
    PspCore energy  =  7.09143022770657E-01
    Loc. psp. energy= -2.36443714061078E+00
    Spherical terms =  1.10456250075098E-01
    >>>>>>>>> Etotal= -8.56156924950307E+00

 "Double-counting" decomposition of free energy:
    Band energy     = -6.28326807248450E-01
    Ewald energy    = -8.47989583509473E+00
    PspCore energy  =  7.09143022770657E-01
    Dble-C XC-energy= -2.46758773337748E-01
    Spherical terms =  8.42691328585071E-02
    >>>> Etotal (DC)= -8.56156926005176E+00

  >Total energy in eV           = -2.32972147292200E+02
  >Total DC energy in eV        = -2.32972147579245E+02
--------------------------------------------------------------------------------

 Cartesian components of stress tensor (hartree/bohr^3)
  sigma(1 1)=  2.59935833E-04  sigma(3 2)=  0.00000000E+00
  sigma(2 2)=  2.59935833E-04  sigma(3 1)=  0.00000000E+00
  sigma(3 3)=  2.59935833E-04  sigma(2 1)=  0.00000000E+00

-Cartesian components of stress tensor (GPa)         [Pressure= -7.6476E+00 GPa]
- sigma(1 1)=  7.64757494E+00  sigma(3 2)=  0.00000000E+00
- sigma(2 2)=  7.64757494E+00  sigma(3 1)=  0.00000000E+00
- sigma(3 3)=  7.64757494E+00  sigma(2 1)=  0.00000000E+00

================================================================================
== DATASET  2 ==================================================================
-   nproc =    4

 mkfilename : getwfk/=0, take file _WFK from output of DATASET   1.

 Exchange-correlation functional for the present dataset will be:
  LDA: Perdew-Wang 92 LSD fit to Ceperley-Alder data - ixc=7
 Citation for XC functional:
  J.P.Perdew and Y.Wang, PRB 45, 13244 (1992)

 Real(R)+Recip(G) space primitive vectors, cartesian coordinates (Bohr,Bohr^-1):
 R(1)=  0.0000000  5.3050000  5.3050000  G(1)= -0.0942507  0.0942507  0.0942507
 R(2)=  5.3050000  0.0000000  5.3050000  G(2)=  0.0942507 -0.0942507  0.0942507
 R(3)=  5.3050000  5.3050000  0.0000000  G(3)=  0.0942507  0.0942507 -0.0942507
 Unit cell volume ucvol=  2.9859750E+02 bohr^3
 Angles (23,13,12)=  6.00000000E+01  6.00000000E+01  6.00000000E+01 degrees
 setup1 : take into account q-point for computing boxcut.

 Coarse grid specifications (used for wave-functions):

 getcut: wavevector=  0.0000  0.0000  0.0000  ngfft=  12  12  12
         ecut(hartree)=      3.000   => boxcut(ratio)=   2.05142

 Fine grid specifications (used for densities):

 getcut: wavevector=  0.0000  0.0000  0.0000  ngfft=  24  24  24
         ecut(hartree)=      9.000   => boxcut(ratio)=   2.36878

 getcut : COMMENT -
  Note that boxcut > 2.2 ; recall that boxcut=Gcut(box)/Gcut(sphere) = 2
  is sufficient for exact treatment of convolution.
  Such a large boxcut is a waste : you could raise ecut
  e.g. ecut=   12.625002 Hartrees makes boxcut=2

--------------------------------------------------------------------------------

-inwffil : will read wavefunctions from disk file t62_MPI4o_DS1_WFK
- newkpt: read input wf with ikpt,npw=   1      69, make ikpt,npw=   1      69
- newkpt: read input wf with ikpt,npw=   1      69, make ikpt,npw=   2      69
- newkpt: read input wf with ikpt,npw=   1      69, make ikpt,npw=   3      69
- newkpt: read input wf with ikpt,npw=   2      74, make ikpt,npw=   4      74
- newkpt: read input wf with ikpt,npw=   3      77, make ikpt,npw=   5      77
- newkpt: read input wf with ikpt,npw=   4      76, make ikpt,npw=   6      76
- newkpt: read input wf with ikpt,npw=   3      77, make ikpt,npw=   7      77
- newkpt: read input wf with ikpt,npw=   3      77, make ikpt,npw=   8      77
- newkpt: read input wf with ikpt,npw=   4      76, make ikpt,npw=   9      76
- newkpt: read input wf with ikpt,npw=   2      74, make ikpt,npw=  10      74
- newkpt: read input wf with ikpt,npw=   4      76, make ikpt,npw=  11      76
- newkpt: read input wf with ikpt,npw=   4      76, make ikpt,npw=  12      76
- newkpt: read input wf with ikpt,npw=   2      74, make ikpt,npw=  13      74
- newkpt: read input wf with ikpt,npw=   5      74, make ikpt,npw=  14      74
- newkpt: read input wf with ikpt,npw=   6      76, make ikpt,npw=  15      76
- newkpt: read input wf with ikpt,npw=   4      76, make ikpt,npw=  16      76
- newkpt: read input wf with ikpt,npw=   7      76, make ikpt,npw=  17      76
- newkpt: read input wf with ikpt,npw=   8      75, make ikpt,npw=  18      75
- newkpt: read input wf with ikpt,npw=   8      75, make ikpt,npw=  19      75
- newkpt: read input wf with ikpt,npw=   7      76, make ikpt,npw=  20      76
- newkpt: read input wf with ikpt,npw=   7      76, make ikpt,npw=  21      76
- newkpt: read input wf with ikpt,npw=   8      75, make ikpt,npw=  22      75
- newkpt: read input wf with ikpt,npw=   8      75, make ikpt,npw=  23      75
- newkpt: read input wf with ikpt,npw=   6      76, make ikpt,npw=  24      76
- newkpt: read input wf with ikpt,npw=   8      75, make ikpt,npw=  25      75
- newkpt: read input wf with ikpt,npw=   8      75, make ikpt,npw=  26      75
- newkpt: read input wf with ikpt,npw=   6      76, make ikpt,npw=  27      76
- newkpt: read input wf with ikpt,npw=   4      76, make ikpt,npw=  28      76
- newkpt: read input wf with ikpt,npw=   5      74, make ikpt,npw=  29      74
- newkpt: read input wf with ikpt,npw=   4      76, make ikpt,npw=  30      76
- newkpt: read input wf with ikpt,npw=   8      75, make ikpt,npw=  31      75
- newkpt: read input wf with ikpt,npw=   8      75, make ikpt,npw=  32      75


 ==>  initialize data related to q vector <== 

 The list of irreducible perturbations for this q vector is:
    1)    idir= 1    ipert=   3
    2)    idir= 2    ipert=   3
    3)    idir= 3    ipert=   3

================================================================================

--------------------------------------------------------------------------------
 Perturbation wavevector (in red.coord.)   0.000000  0.000000  0.000000
 Perturbation : derivative vs k along direction   1
 The set of symmetries contains only one element for this perturbation.
 symkpt : not enough symmetry to change the number of k points.

--------------------------------------------------------------------------------

-inwffil : will read wavefunctions from disk file t62_MPI4o_DS1_WFK
- newkpt: read input wf with ikpt,npw=   1      69, make ikpt,npw=   1      69
- newkpt: read input wf with ikpt,npw=   1      69, make ikpt,npw=   2      69
- newkpt: read input wf with ikpt,npw=   1      69, make ikpt,npw=   3      69
- newkpt: read input wf with ikpt,npw=   2      74, make ikpt,npw=   4      74
- newkpt: read input wf with ikpt,npw=   3      77, make ikpt,npw=   5      77
- newkpt: read input wf with ikpt,npw=   4      76, make ikpt,npw=   6      76
- newkpt: read input wf with ikpt,npw=   3      77, make ikpt,npw=   7      77
- newkpt: read input wf with ikpt,npw=   3      77, make ikpt,npw=   8      77
- newkpt: read input wf with ikpt,npw=   4      76, make ikpt,npw=   9      76
- newkpt: read input wf with ikpt,npw=   2      74, make ikpt,npw=  10      74
- newkpt: read input wf with ikpt,npw=   4      76, make ikpt,npw=  11      76
- newkpt: read input wf with ikpt,npw=   4      76, make ikpt,npw=  12      76
- newkpt: read input wf with ikpt,npw=   2      74, make ikpt,npw=  13      74
- newkpt: read input wf with ikpt,npw=   5      74, make ikpt,npw=  14      74
- newkpt: read input wf with ikpt,npw=   6      76, make ikpt,npw=  15      76
- newkpt: read input wf with ikpt,npw=   4      76, make ikpt,npw=  16      76
- newkpt: read input wf with ikpt,npw=   7      76, make ikpt,npw=  17      76
- newkpt: read input wf with ikpt,npw=   8      75, make ikpt,npw=  18      75
- newkpt: read input wf with ikpt,npw=   8      75, make ikpt,npw=  19      75
- newkpt: read input wf with ikpt,npw=   7      76, make ikpt,npw=  20      76
- newkpt: read input wf with ikpt,npw=   7      76, make ikpt,npw=  21      76
- newkpt: read input wf with ikpt,npw=   8      75, make ikpt,npw=  22      75
- newkpt: read input wf with ikpt,npw=   8      75, make ikpt,npw=  23      75
- newkpt: read input wf with ikpt,npw=   6      76, make ikpt,npw=  24      76
- newkpt: read input wf with ikpt,npw=   8      75, make ikpt,npw=  25      75
- newkpt: read input wf with ikpt,npw=   8      75, make ikpt,npw=  26      75
- newkpt: read input wf with ikpt,npw=   6      76, make ikpt,npw=  27      76
- newkpt: read input wf with ikpt,npw=   4      76, make ikpt,npw=  28      76
- newkpt: read input wf with ikpt,npw=   5      74, make ikpt,npw=  29      74
- newkpt: read input wf with ikpt,npw=   4      76, make ikpt,npw=  30      76
- newkpt: read input wf with ikpt,npw=   8      75, make ikpt,npw=  31      75
- newkpt: read input wf with ikpt,npw=   8      75, make ikpt,npw=  32      75

--------------------------------------------------------------------------------

-inwffil : will read wavefunctions from disk file t62_MPI4o_DS1_WFK
- newkpt: read input wf with ikpt,npw=   1      69, make ikpt,npw=   1      69
- newkpt: read input wf with ikpt,npw=   1      69, make ikpt,npw=   2      69
- newkpt: read input wf with ikpt,npw=   1      69, make ikpt,npw=   3      69
- newkpt: read input wf with ikpt,npw=   2      74, make ikpt,npw=   4      74
- newkpt: read input wf with ikpt,npw=   3      77, make ikpt,npw=   5      77
- newkpt: read input wf with ikpt,npw=   4      76, make ikpt,npw=   6      76
- newkpt: read input wf with ikpt,npw=   3      77, make ikpt,npw=   7      77
- newkpt: read input wf with ikpt,npw=   3      77, make ikpt,npw=   8      77
- newkpt: read input wf with ikpt,npw=   4      76, make ikpt,npw=   9      76
- newkpt: read input wf with ikpt,npw=   2      74, make ikpt,npw=  10      74
- newkpt: read input wf with ikpt,npw=   4      76, make ikpt,npw=  11      76
- newkpt: read input wf with ikpt,npw=   4      76, make ikpt,npw=  12      76
- newkpt: read input wf with ikpt,npw=   2      74, make ikpt,npw=  13      74
- newkpt: read input wf with ikpt,npw=   5      74, make ikpt,npw=  14      74
- newkpt: read input wf with ikpt,npw=   6      76, make ikpt,npw=  15      76
- newkpt: read input wf with ikpt,npw=   4      76, make ikpt,npw=  16      76
- newkpt: read input wf with ikpt,npw=   7      76, make ikpt,npw=  17      76
- newkpt: read input wf with ikpt,npw=   8      75, make ikpt,npw=  18      75
- newkpt: read input wf with ikpt,npw=   8      75, make ikpt,npw=  19      75
- newkpt: read input wf with ikpt,npw=   7      76, make ikpt,npw=  20      76
- newkpt: read input wf with ikpt,npw=   7      76, make ikpt,npw=  21      76
- newkpt: read input wf with ikpt,npw=   8      75, make ikpt,npw=  22      75
- newkpt: read input wf with ikpt,npw=   8      75, make ikpt,npw=  23      75
- newkpt: read input wf with ikpt,npw=   6      76, make ikpt,npw=  24      76
- newkpt: read input wf with ikpt,npw=   8      75, make ikpt,npw=  25      75
- newkpt: read input wf with ikpt,npw=   8      75, make ikpt,npw=  26      75
- newkpt: read input wf with ikpt,npw=   6      76, make ikpt,npw=  27      76
- newkpt: read input wf with ikpt,npw=   4      76, make ikpt,npw=  28      76
- newkpt: read input wf with ikpt,npw=   5      74, make ikpt,npw=  29      74
- newkpt: read input wf with ikpt,npw=   4      76, make ikpt,npw=  30      76
- newkpt: read input wf with ikpt,npw=   8      75, make ikpt,npw=  31      75
- newkpt: read input wf with ikpt,npw=   8      75, make ikpt,npw=  32      75

 Initialisation of the first-order wave-functions :
  ireadwf=   0
P newkpt: treating      4 bands with npw=      69 for ikpt=   1 by node    0
P newkpt: treating      4 bands with npw=      69 for ikpt=   2 by node    0
P newkpt: treating      4 bands with npw=      69 for ikpt=   3 by node    0
P newkpt: treating      4 bands with npw=      74 for ikpt=   4 by node    0
P newkpt: treating      4 bands with npw=      77 for ikpt=   5 by node    0
P newkpt: treating      4 bands with npw=      76 for ikpt=   6 by node    0
P newkpt: treating      4 bands with npw=      77 for ikpt=   7 by node    0
P newkpt: treating      4 bands with npw=      77 for ikpt=   8 by node    0
P newkpt: treating      4 bands with npw=      76 for ikpt=   9 by node    0
P newkpt: treating      4 bands with npw=      74 for ikpt=  10 by node    0
P newkpt: treating      4 bands with npw=      76 for ikpt=  11 by node    0
P newkpt: treating      4 bands with npw=      76 for ikpt=  12 by node    0
P newkpt: treating      4 bands with npw=      74 for ikpt=  13 by node    0
P newkpt: treating      4 bands with npw=      74 for ikpt=  14 by node    0
P newkpt: treating      4 bands with npw=      76 for ikpt=  15 by node    0
P newkpt: treating      4 bands with npw=      76 for ikpt=  16 by node    0
P newkpt: treating      4 bands with npw=      76 for ikpt=  17 by node    0
P newkpt: treating      4 bands with npw=      75 for ikpt=  18 by node    0
P newkpt: treating      4 bands with npw=      75 for ikpt=  19 by node    0
P newkpt: treating      4 bands with npw=      76 for ikpt=  20 by node    0
P newkpt: treating      4 bands with npw=      76 for ikpt=  21 by node    0
P newkpt: treating      4 bands with npw=      75 for ikpt=  22 by node    0
P newkpt: treating      4 bands with npw=      75 for ikpt=  23 by node    0
P newkpt: treating      4 bands with npw=      76 for ikpt=  24 by node    0
P newkpt: treating      4 bands with npw=      75 for ikpt=  25 by node    0
P newkpt: treating      4 bands with npw=      75 for ikpt=  26 by node    0
P newkpt: treating      4 bands with npw=      76 for ikpt=  27 by node    0
P newkpt: treating      4 bands with npw=      76 for ikpt=  28 by node    0
P newkpt: treating      4 bands with npw=      74 for ikpt=  29 by node    0
P newkpt: treating      4 bands with npw=      76 for ikpt=  30 by node    0
P newkpt: treating      4 bands with npw=      75 for ikpt=  31 by node    0
P newkpt: treating      4 bands with npw=      75 for ikpt=  32 by node    0
P newkpt: treating      4 bands with npw=      76 for ikpt=  33 by node    1
P newkpt: treating      4 bands with npw=      74 for ikpt=  34 by node    1
P newkpt: treating      4 bands with npw=      65 for ikpt=  35 by node    1
P newkpt: treating      4 bands with npw=      69 for ikpt=  36 by node    1
P newkpt: treating      4 bands with npw=      76 for ikpt=  37 by node    1
P newkpt: treating      4 bands with npw=      77 for ikpt=  38 by node    1
P newkpt: treating      4 bands with npw=      75 for ikpt=  39 by node    1
P newkpt: treating      4 bands with npw=      75 for ikpt=  40 by node    1
P newkpt: treating      4 bands with npw=      76 for ikpt=  41 by node    1
P newkpt: treating      4 bands with npw=      76 for ikpt=  42 by node    1
P newkpt: treating      4 bands with npw=      75 for ikpt=  43 by node    1
P newkpt: treating      4 bands with npw=      75 for ikpt=  44 by node    1
P newkpt: treating      4 bands with npw=      76 for ikpt=  45 by node    1
P newkpt: treating      4 bands with npw=      75 for ikpt=  46 by node    1
P newkpt: treating      4 bands with npw=      75 for ikpt=  47 by node    1
P newkpt: treating      4 bands with npw=      76 for ikpt=  48 by node    1
P newkpt: treating      4 bands with npw=      76 for ikpt=  49 by node    1
P newkpt: treating      4 bands with npw=      77 for ikpt=  50 by node    1
 newkpt: prtvol=0 or 1, do not print more k-points.


     iter   2DEtotal(Ha)        deltaE(Ha) residm    vres2
-ETOT  1  -8.8291962671962     -8.829E+00 3.738E-02 0.000E+00

 At SCF step    1       vres2   =  0.00E+00 < tolvrs=  1.00E-08 =>converged.
================================================================================

 ----iterations are completed or convergence reached----

 Mean square residual over all n,k,spin=   2.1971E-03; max=  3.7380E-02
  -0.1250 -0.2500  0.0000    1  3.76307E-03 kpt; spin; max resid(k); each band:
  2.50E-04 1.77E-03 3.71E-03 3.76E-03
  -0.2500 -0.1250  0.0000    1  3.39607E-03 kpt; spin; max resid(k); each band:
  3.20E-04 3.33E-03 8.88E-04 3.40E-03
  -0.1250 -0.1250  0.1250    1  6.38835E-03 kpt; spin; max resid(k); each band:
  2.22E-04 6.70E-04 6.39E-03 1.76E-03
  -0.1250  0.5000  0.0000    1  5.17230E-03 kpt; spin; max resid(k); each band:
  3.18E-04 6.53E-04 2.40E-03 5.17E-03
  -0.2500 -0.3750  0.0000    1  1.68488E-03 kpt; spin; max resid(k); each band:
  4.00E-04 1.68E-03 1.50E-03 1.20E-03
  -0.1250 -0.3750  0.1250    1  2.50928E-03 kpt; spin; max resid(k); each band:
  2.89E-04 9.85E-04 2.51E-03 1.69E-03
  -0.3750 -0.2500  0.0000    1  1.83006E-03 kpt; spin; max resid(k); each band:
  3.39E-04 1.25E-03 1.83E-03 2.37E-04
  -0.2500 -0.2500  0.1250    1  4.12363E-03 kpt; spin; max resid(k); each band:
  3.07E-04 9.27E-04 1.94E-03 4.12E-03
  -0.1250 -0.2500  0.2500    1  4.21290E-03 kpt; spin; max resid(k); each band:
  2.62E-04 5.80E-04 4.21E-03 2.91E-03
   0.5000 -0.1250  0.0000    1  2.65135E-03 kpt; spin; max resid(k); each band:
  2.09E-04 1.52E-03 2.65E-03 5.90E-04
  -0.3750 -0.1250  0.1250    1  3.32213E-03 kpt; spin; max resid(k); each band:
  2.40E-04 1.29E-03 3.32E-03 2.77E-03
  -0.2500 -0.1250  0.2500    1  2.20385E-03 kpt; spin; max resid(k); each band:
  2.76E-04 4.06E-04 6.19E-04 2.20E-03
  -0.1250 -0.1250  0.3750    1  8.97949E-03 kpt; spin; max resid(k); each band:
  2.14E-04 4.92E-04 1.06E-03 8.98E-03
  -0.1250  0.2500  0.0000    1  7.03802E-03 kpt; spin; max resid(k); each band:
  2.69E-04 2.63E-04 2.15E-03 7.04E-03
  -0.2500  0.3750  0.0000    1  3.46159E-03 kpt; spin; max resid(k); each band:
  2.49E-04 6.52E-04 3.46E-03 2.26E-03
  -0.1250  0.3750  0.1250    1  2.20385E-03 kpt; spin; max resid(k); each band:
  2.76E-04 4.06E-04 6.19E-04 2.20E-03
  -0.3750  0.5000  0.0000    1  1.56495E-03 kpt; spin; max resid(k); each band:
  2.64E-04 1.56E-03 9.76E-04 4.74E-04
  -0.2500  0.5000  0.1250    1  3.58368E-03 kpt; spin; max resid(k); each band:
  1.99E-04 1.02E-03 3.58E-03 2.76E-03
  -0.1250  0.5000  0.2500    1  1.29835E-03 kpt; spin; max resid(k); each band:
  1.82E-04 7.55E-04 1.30E-03 1.16E-03
   0.5000 -0.3750  0.0000    1  1.37583E-03 kpt; spin; max resid(k); each band:
  2.06E-04 1.38E-03 1.06E-03 2.14E-04
  -0.3750 -0.3750  0.1250    1  3.50093E-03 kpt; spin; max resid(k); each band:
  1.94E-04 1.43E-03 7.37E-04 3.50E-03
  -0.2500 -0.3750  0.2500    1  2.23392E-03 kpt; spin; max resid(k); each band:
  2.11E-04 7.87E-04 2.23E-03 1.18E-03
  -0.1250 -0.3750  0.3750    1  2.23392E-03 kpt; spin; max resid(k); each band:
  2.11E-04 7.87E-04 2.23E-03 1.18E-03
   0.3750 -0.2500  0.0000    1  2.46845E-03 kpt; spin; max resid(k); each band:
  1.96E-04 1.14E-03 2.47E-03 8.27E-04
   0.5000 -0.2500  0.1250    1  4.30917E-03 kpt; spin; max resid(k); each band:
  1.62E-04 9.50E-04 4.31E-03 8.19E-04
  -0.3750 -0.2500  0.2500    1  1.29835E-03 kpt; spin; max resid(k); each band:
  1.82E-04 7.55E-04 1.30E-03 1.16E-03
  -0.2500 -0.2500  0.3750    1  4.02642E-03 kpt; spin; max resid(k); each band:
  1.78E-04 6.05E-04 1.74E-03 4.03E-03
  -0.1250 -0.2500  0.5000    1  4.21290E-03 kpt; spin; max resid(k); each band:
  2.62E-04 5.80E-04 4.21E-03 2.91E-03
   0.2500 -0.1250  0.0000    1  3.32313E-03 kpt; spin; max resid(k); each band:
  3.06E-04 2.14E-03 3.32E-03 2.14E-03
   0.3750 -0.1250  0.1250    1  3.32213E-03 kpt; spin; max resid(k); each band:
  2.40E-04 1.29E-03 3.32E-03 2.77E-03
   0.5000 -0.1250  0.2500    1  4.30917E-03 kpt; spin; max resid(k); each band:
  1.62E-04 9.50E-04 4.31E-03 8.19E-04
  -0.3750 -0.1250  0.3750    1  3.58368E-03 kpt; spin; max resid(k); each band:
  1.99E-04 1.02E-03 3.58E-03 2.76E-03
  -0.2500 -0.1250  0.5000    1  2.50928E-03 kpt; spin; max resid(k); each band:
  2.89E-04 9.85E-04 2.51E-03 1.69E-03
  -0.1250 -0.1250 -0.3750    1  1.37851E-02 kpt; spin; max resid(k); each band:
  1.90E-04 8.50E-04 9.20E-04 1.38E-02
  -0.1250  0.0000  0.0000    1  1.24786E-03 kpt; spin; max resid(k); each band:
  2.16E-04 1.25E-03 8.28E-04 8.28E-04
  -0.1250  0.1250  0.1250    1  3.39607E-03 kpt; spin; max resid(k); each band:
  3.20E-04 3.33E-03 8.88E-04 3.40E-03
  -0.2500  0.2500  0.1250    1  3.32213E-03 kpt; spin; max resid(k); each band:
  2.40E-04 1.29E-03 3.32E-03 2.77E-03
  -0.1250  0.2500  0.2500    1  1.83006E-03 kpt; spin; max resid(k); each band:
  3.39E-04 1.25E-03 1.83E-03 2.37E-04
  -0.3750  0.3750  0.1250    1  4.30917E-03 kpt; spin; max resid(k); each band:
  1.62E-04 9.50E-04 4.31E-03 8.19E-04
  -0.2500  0.3750  0.2500    1  4.30917E-03 kpt; spin; max resid(k); each band:
  1.62E-04 9.50E-04 4.31E-03 8.19E-04
  -0.1250  0.3750  0.3750    1  1.37583E-03 kpt; spin; max resid(k); each band:
  2.06E-04 1.38E-03 1.06E-03 2.14E-04
   0.5000  0.5000  0.1250    1  3.50093E-03 kpt; spin; max resid(k); each band:
  1.94E-04 1.43E-03 7.37E-04 3.50E-03
  -0.3750  0.5000  0.2500    1  1.29835E-03 kpt; spin; max resid(k); each band:
  1.82E-04 7.55E-04 1.30E-03 1.16E-03
  -0.2500  0.5000  0.3750    1  3.58368E-03 kpt; spin; max resid(k); each band:
  1.99E-04 1.02E-03 3.58E-03 2.76E-03
  -0.1250  0.5000  0.5000    1  1.56495E-03 kpt; spin; max resid(k); each band:
  2.64E-04 1.56E-03 9.76E-04 4.74E-04
   0.3750 -0.3750  0.1250    1  3.58368E-03 kpt; spin; max resid(k); each band:
  1.99E-04 1.02E-03 3.58E-03 2.76E-03
   0.5000 -0.3750  0.2500    1  2.23392E-03 kpt; spin; max resid(k); each band:
  2.11E-04 7.87E-04 2.23E-03 1.18E-03
  -0.3750 -0.3750  0.3750    1  4.02642E-03 kpt; spin; max resid(k); each band:
  1.78E-04 6.05E-04 1.74E-03 4.03E-03
  -0.2500 -0.3750  0.5000    1  2.50928E-03 kpt; spin; max resid(k); each band:
  2.89E-04 9.85E-04 2.51E-03 1.69E-03
  -0.1250 -0.3750 -0.3750    1  1.68488E-03 kpt; spin; max resid(k); each band:
  4.00E-04 1.68E-03 1.50E-03 1.20E-03
 outwf : prtvol=0 or 1, do not print more k-points.

 loper3 : ek2=    1.6833336546E+01
          f-sum rule ratio=    1.1093647180E+00
 prteigrs : about to open file t62_MPI4_1WF1_EIG
 Expectation of eigenvalue derivatives (hartree) for nkpt= 128  k points:
  (in case of degenerate eigenvalues, averaged derivative)
 kpt#   1, nband=  4, wtk=  0.00781, kpt= -0.1250 -0.2500  0.0000 (reduced coord)
  -0.03170  -0.09096   0.15372   0.22863
 kpt#   2, nband=  4, wtk=  0.00781, kpt= -0.2500 -0.1250  0.0000 (reduced coord)
  -0.14056   0.52068   0.10112   0.13647
 kpt#   3, nband=  4, wtk=  0.00781, kpt= -0.1250 -0.1250  0.1250 (reduced coord)
  -0.08613   0.21486   0.12742   0.18255
 kpt#   4, nband=  4, wtk=  0.00781, kpt= -0.1250  0.5000  0.0000 (reduced coord)
  -0.03722  -0.10856   0.39037   0.14644
 kpt#   5, nband=  4, wtk=  0.00781, kpt= -0.2500 -0.3750  0.0000 (reduced coord)
  -0.07890   0.05518   0.04793   0.13916
 kpt#   6, nband=  4, wtk=  0.00781, kpt= -0.1250 -0.3750  0.1250 (reduced coord)
  -0.03914  -0.10125   0.14708   0.24197
 kpt#   7, nband=  4, wtk=  0.00781, kpt= -0.3750 -0.2500  0.0000 (reduced coord)
  -0.15283   0.31404   0.25086   0.04338
 kpt#   8, nband=  4, wtk=  0.00781, kpt= -0.2500 -0.2500  0.1250 (reduced coord)
  -0.11586   0.18461   0.14939   0.09127
 kpt#   9, nband=  4, wtk=  0.00781, kpt= -0.1250 -0.2500  0.2500 (reduced coord)
  -0.05316   0.10405  -0.12355   0.19570
 kpt#  10, nband=  4, wtk=  0.00781, kpt=  0.5000 -0.1250  0.0000 (reduced coord)
  -0.06704   0.12951   0.08452  -0.04078
 kpt#  11, nband=  4, wtk=  0.00781, kpt= -0.3750 -0.1250  0.1250 (reduced coord)
  -0.14223   0.27003   0.09744   0.10867
 kpt#  12, nband=  4, wtk=  0.00781, kpt= -0.2500 -0.1250  0.2500 (reduced coord)
  -0.12821   0.06473   0.36807   0.15493
 kpt#  13, nband=  4, wtk=  0.00781, kpt= -0.1250 -0.1250  0.3750 (reduced coord)
  -0.05213   0.01048   0.23745   0.05283
 kpt#  14, nband=  4, wtk=  0.00781, kpt= -0.1250  0.2500  0.0000 (reduced coord)
  -0.12596   0.16122   0.46081   0.08275
 kpt#  15, nband=  4, wtk=  0.00781, kpt= -0.2500  0.3750  0.0000 (reduced coord)
  -0.10056  -0.04296   0.30396   0.16006
 kpt#  16, nband=  4, wtk=  0.00781, kpt= -0.1250  0.3750  0.1250 (reduced coord)
  -0.12821   0.06473   0.36807   0.15493
 kpt#  17, nband=  4, wtk=  0.00781, kpt= -0.3750  0.5000  0.0000 (reduced coord)
  -0.06100   0.11295  -0.19003   0.08786
 kpt#  18, nband=  4, wtk=  0.00781, kpt= -0.2500  0.5000  0.1250 (reduced coord)
  -0.05499   0.01221  -0.01734   0.17524
 kpt#  19, nband=  4, wtk=  0.00781, kpt= -0.1250  0.5000  0.2500 (reduced coord)
  -0.06346  -0.00919   0.07462   0.26514
 kpt#  20, nband=  4, wtk=  0.00781, kpt=  0.5000 -0.3750  0.0000 (reduced coord)
  -0.07623   0.06996   0.29698  -0.02465
 kpt#  21, nband=  4, wtk=  0.00781, kpt= -0.3750 -0.3750  0.1250 (reduced coord)
  -0.06861   0.09146   0.05348   0.03160
 kpt#  22, nband=  4, wtk=  0.00781, kpt= -0.2500 -0.3750  0.2500 (reduced coord)
  -0.02638   0.03899   0.07142  -0.12517
 kpt#  23, nband=  4, wtk=  0.00781, kpt= -0.1250 -0.3750  0.3750 (reduced coord)
   0.02638  -0.03899  -0.07142   0.12517
 kpt#  24, nband=  4, wtk=  0.00781, kpt=  0.3750 -0.2500  0.0000 (reduced coord)
   0.06350  -0.11092   0.04532  -0.11836
 kpt#  25, nband=  4, wtk=  0.00781, kpt=  0.5000 -0.2500  0.1250 (reduced coord)
  -0.03485   0.01759   0.16338  -0.03527
 kpt#  26, nband=  4, wtk=  0.00781, kpt= -0.3750 -0.2500  0.2500 (reduced coord)
  -0.06346  -0.00919   0.07462   0.26514
 kpt#  27, nband=  4, wtk=  0.00781, kpt= -0.2500 -0.2500  0.3750 (reduced coord)
  -0.01853  -0.07694   0.17464   0.02085
 kpt#  28, nband=  4, wtk=  0.00781, kpt= -0.1250 -0.2500  0.5000 (reduced coord)
   0.05316  -0.10405   0.12355  -0.19570
 kpt#  29, nband=  4, wtk=  0.00781, kpt=  0.2500 -0.1250  0.0000 (reduced coord)
   0.16898  -0.45559  -0.10837  -0.12525
 kpt#  30, nband=  4, wtk=  0.00781, kpt=  0.3750 -0.1250  0.1250 (reduced coord)
   0.14223  -0.27003  -0.09744  -0.10867
 kpt#  31, nband=  4, wtk=  0.00781, kpt=  0.5000 -0.1250  0.2500 (reduced coord)
   0.03485  -0.01759  -0.16338   0.03527
 kpt#  32, nband=  4, wtk=  0.00781, kpt= -0.3750 -0.1250  0.3750 (reduced coord)
  -0.05499   0.01221  -0.01734   0.17524
 kpt#  33, nband=  4, wtk=  0.00781, kpt= -0.2500 -0.1250  0.5000 (reduced coord)
  -0.03914  -0.10125   0.14708   0.24197
 kpt#  34, nband=  4, wtk=  0.00781, kpt= -0.1250 -0.1250 -0.3750 (reduced coord)
   0.02151  -0.14718   0.17622  -0.02125
 kpt#  35, nband=  4, wtk=  0.00781, kpt= -0.1250  0.0000  0.0000 (reduced coord)
  -0.09238   0.60856   0.09009   0.09009
[...]
                      -2.50000000E-01  5.00000000E-01  3.75000000E-01
                      -1.25000000E-01  5.00000000E-01  5.00000000E-01
                       2.50000000E-01 -3.75000000E-01  0.00000000E+00
              kpt6    -1.25000000E-01 -2.50000000E-01  0.00000000E+00
                      -2.50000000E-01 -1.25000000E-01  0.00000000E+00
                      -1.25000000E-01 -1.25000000E-01  1.25000000E-01
                      -1.25000000E-01  5.00000000E-01  0.00000000E+00
                      -2.50000000E-01 -3.75000000E-01  0.00000000E+00
                      -1.25000000E-01 -3.75000000E-01  1.25000000E-01
                      -3.75000000E-01 -2.50000000E-01  0.00000000E+00
                      -2.50000000E-01 -2.50000000E-01  1.25000000E-01
                      -1.25000000E-01 -2.50000000E-01  2.50000000E-01
                       5.00000000E-01 -1.25000000E-01  0.00000000E+00
                      -3.75000000E-01 -1.25000000E-01  1.25000000E-01
                      -2.50000000E-01 -1.25000000E-01  2.50000000E-01
                      -1.25000000E-01 -1.25000000E-01  3.75000000E-01
                      -1.25000000E-01  2.50000000E-01  0.00000000E+00
                      -2.50000000E-01  3.75000000E-01  0.00000000E+00
                      -1.25000000E-01  3.75000000E-01  1.25000000E-01
                      -3.75000000E-01  5.00000000E-01  0.00000000E+00
                      -2.50000000E-01  5.00000000E-01  1.25000000E-01
                      -1.25000000E-01  5.00000000E-01  2.50000000E-01
                       5.00000000E-01 -3.75000000E-01  0.00000000E+00
                      -3.75000000E-01 -3.75000000E-01  1.25000000E-01
                      -2.50000000E-01 -3.75000000E-01  2.50000000E-01
                      -1.25000000E-01 -3.75000000E-01  3.75000000E-01
                       3.75000000E-01 -2.50000000E-01  0.00000000E+00
                       5.00000000E-01 -2.50000000E-01  1.25000000E-01
                      -3.75000000E-01 -2.50000000E-01  2.50000000E-01
                      -2.50000000E-01 -2.50000000E-01  3.75000000E-01
                      -1.25000000E-01 -2.50000000E-01  5.00000000E-01
                       2.50000000E-01 -1.25000000E-01  0.00000000E+00
                       3.75000000E-01 -1.25000000E-01  1.25000000E-01
                       5.00000000E-01 -1.25000000E-01  2.50000000E-01
                      -3.75000000E-01 -1.25000000E-01  3.75000000E-01
                      -2.50000000E-01 -1.25000000E-01  5.00000000E-01
                      -1.25000000E-01 -1.25000000E-01 -3.75000000E-01
                      -1.25000000E-01  0.00000000E+00  0.00000000E+00
                      -2.50000000E-01  1.25000000E-01  0.00000000E+00
                      -1.25000000E-01  1.25000000E-01  1.25000000E-01
                      -3.75000000E-01  2.50000000E-01  0.00000000E+00
                      -2.50000000E-01  2.50000000E-01  1.25000000E-01
                      -1.25000000E-01  2.50000000E-01  2.50000000E-01
                       5.00000000E-01  3.75000000E-01  0.00000000E+00
                      -3.75000000E-01  3.75000000E-01  1.25000000E-01
                      -2.50000000E-01  3.75000000E-01  2.50000000E-01
                      -1.25000000E-01  3.75000000E-01  3.75000000E-01
                       3.75000000E-01  5.00000000E-01  0.00000000E+00
                       5.00000000E-01  5.00000000E-01  1.25000000E-01
                      -3.75000000E-01  5.00000000E-01  2.50000000E-01
                      -2.50000000E-01  5.00000000E-01  3.75000000E-01
                      -1.25000000E-01  5.00000000E-01  5.00000000E-01
                       2.50000000E-01 -3.75000000E-01  0.00000000E+00
                       outvar_i_n : Printing only first  50 k-points.
           kptopt1          1
           kptopt2          2
           kptopt3          2
           kptopt4          2
           kptopt5          3
           kptopt6          3
         kptrlatt        4   -4    4     -4    4    4     -4   -4    4
          kptrlen      4.24400000E+01
P           mkmem1          5
P           mkmem2         32
P           mkmem3         32
P           mkmem4         32
P           mkmem5         64
P           mkmem6         64
P          mkqmem1          5
P          mkqmem2         32
P          mkqmem3         32
P          mkqmem4         32
P          mkqmem5         64
P          mkqmem6         64
P          mk1mem1          5
P          mk1mem2         32
P          mk1mem3         32
P          mk1mem4         32
P          mk1mem5         64
P          mk1mem6         64
            natom           2
            nband1          4
            nband2          4
            nband3          4
            nband4          4
            nband5          4
            nband6          4
           ndtset           6
            ngfft1         12      12      12
            ngfft2         12      12      12
            ngfft3         12      12      12
            ngfft4         12      12      12
            ngfft5         15      15      15
            ngfft6         15      15      15
          ngfftdg          24      24      24
             nkpt1         10
             nkpt2        128
             nkpt3        128
             nkpt4        128
             nkpt5        256
             nkpt6        256
-           npfft1          2
-           npfft2          1
-           npfft3          1
-           npfft4          1
-           npfft5          1
-           npfft6          1
-           npkpt1          2
-           npkpt2          1
-           npkpt3          1
-           npkpt4          1
-           npkpt5          1
-           npkpt6          1
-          nppert1          1
-          nppert2          1
-          nppert3          1
-          nppert4          2
-          nppert5          2
-          nppert6          2
             nqpt1          0
             nqpt2          1
             nqpt3          1
             nqpt4          1
             nqpt5          1
             nqpt6          1
            nstep          25
             nsym          24
           ntypat           2
              occ1     2.000000  2.000000  2.000000  2.000000
              occ2     2.000000  2.000000  2.000000  2.000000
              occ3     2.000000  2.000000  2.000000  2.000000
              occ4     2.000000  2.000000  2.000000  2.000000
              occ5     2.000000  2.000000  2.000000  2.000000
              occ6     2.000000  2.000000  2.000000  2.000000
        optdriver1          0
        optdriver2          1
        optdriver3          1
        optdriver4          1
        optdriver5          1
        optdriver6          1
        paral_kgb1          1
        paral_kgb2          0
        paral_kgb3          0
        paral_kgb4          0
        paral_kgb5          0
        paral_kgb6          0
         paral_rf1          0
         paral_rf2          0
         paral_rf3          0
         paral_rf4          1
         paral_rf5          1
         paral_rf6          1
        pawecutdg      9.00000000E+00 Hartree
         pawmixdg1          1
         pawmixdg2          0
         pawmixdg3          0
         pawmixdg4          0
         pawmixdg5          0
         pawmixdg6          0
         pawxcdev           0
              qpt1     0.00000000E+00  0.00000000E+00  0.00000000E+00
              qpt2     0.00000000E+00  0.00000000E+00  0.00000000E+00
              qpt3     0.00000000E+00  0.00000000E+00  0.00000000E+00
              qpt4     0.00000000E+00  0.00000000E+00  0.00000000E+00
              qpt5     2.50000000E-01  0.00000000E+00  0.00000000E+00
              qpt6    -2.50000000E-01  5.00000000E-01  2.50000000E-01
          rfatpol           1       2
            rfdir           1       1       1
           rfelfd1          0
           rfelfd2          2
           rfelfd3          3
           rfelfd4          0
           rfelfd5          0
           rfelfd6          0
           rfphon1          0
           rfphon2          0
           rfphon3          0
           rfphon4          1
           rfphon5          1
           rfphon6          1
            rprim      0.0000000000E+00  5.0000000000E-01  5.0000000000E-01
                       5.0000000000E-01  0.0000000000E+00  5.0000000000E-01
                       5.0000000000E-01  5.0000000000E-01  0.0000000000E+00
           shiftk      5.00000000E-01  5.00000000E-01  5.00000000E-01
          spgroup         216
           strten1     2.5993583270E-04  2.5993583270E-04  2.5993583270E-04
                       0.0000000000E+00  0.0000000000E+00  0.0000000000E+00
           strten3     0.0000000000E+00  0.0000000000E+00  0.0000000000E+00
                       0.0000000000E+00  0.0000000000E+00  0.0000000000E+00
           strten4     0.0000000000E+00  0.0000000000E+00  0.0000000000E+00
                       0.0000000000E+00  0.0000000000E+00  0.0000000000E+00
           strten5     0.0000000000E+00  0.0000000000E+00  0.0000000000E+00
                       0.0000000000E+00  0.0000000000E+00  0.0000000000E+00
           strten6     0.0000000000E+00  0.0000000000E+00  0.0000000000E+00
                       0.0000000000E+00  0.0000000000E+00  0.0000000000E+00
           symrel      1  0  0   0  1  0   0  0  1       0 -1  1   0 -1  0   1 -1  0
                      -1  0  0  -1  0  1  -1  1  0       0  1 -1   1  0 -1   0  0 -1
                      -1  0  0  -1  1  0  -1  0  1       0 -1  1   1 -1  0   0 -1  0
                       1  0  0   0  0  1   0  1  0       0  1 -1   0  0 -1   1  0 -1
                      -1  0  1  -1  1  0  -1  0  0       0 -1  0   1 -1  0   0 -1  1
                       1  0 -1   0  0 -1   0  1 -1       0  1  0   0  0  1   1  0  0
                       1  0 -1   0  1 -1   0  0 -1       0 -1  0   0 -1  1   1 -1  0
                      -1  0  1  -1  0  0  -1  1  0       0  1  0   1  0  0   0  0  1
                       0  0 -1   0  1 -1   1  0 -1       1 -1  0   0 -1  1   0 -1  0
                       0  0  1   1  0  0   0  1  0      -1  1  0  -1  0  0  -1  0  1
                       0  0  1   0  1  0   1  0  0       1 -1  0   0 -1  0   0 -1  1
                       0  0 -1   1  0 -1   0  1 -1      -1  1  0  -1  0  1  -1  0  0
           tolvrs1     1.00000000E-15
           tolvrs2     1.00000000E-08
           tolvrs3     1.00000000E-08
           tolvrs4     1.00000000E-08
           tolvrs5     1.00000000E-08
           tolvrs6     1.00000000E-08
            typat      1  2
           useylm           1
         wfoptalg1         14
         wfoptalg2         10
         wfoptalg3         10
         wfoptalg4         10
         wfoptalg5         10
         wfoptalg6         10
              wtk1       0.09375    0.09375    0.09375    0.18750    0.09375    0.09375
                         0.09375    0.18750    0.03125    0.03125
              wtk2       0.00781    0.00781    0.00781    0.00781    0.00781    0.00781
                         0.00781    0.00781    0.00781    0.00781    0.00781    0.00781
                         0.00781    0.00781    0.00781    0.00781    0.00781    0.00781
                         0.00781    0.00781    0.00781    0.00781    0.00781    0.00781
                         0.00781    0.00781    0.00781    0.00781    0.00781    0.00781
                         0.00781    0.00781    0.00781    0.00781    0.00781    0.00781
                         0.00781    0.00781    0.00781    0.00781    0.00781    0.00781
                         0.00781    0.00781    0.00781    0.00781    0.00781    0.00781
                         0.00781    0.00781
              wtk3       0.00781    0.00781    0.00781    0.00781    0.00781    0.00781
                         0.00781    0.00781    0.00781    0.00781    0.00781    0.00781
                         0.00781    0.00781    0.00781    0.00781    0.00781    0.00781
                         0.00781    0.00781    0.00781    0.00781    0.00781    0.00781
                         0.00781    0.00781    0.00781    0.00781    0.00781    0.00781
                         0.00781    0.00781    0.00781    0.00781    0.00781    0.00781
                         0.00781    0.00781    0.00781    0.00781    0.00781    0.00781
                         0.00781    0.00781    0.00781    0.00781    0.00781    0.00781
                         0.00781    0.00781
              wtk4       0.00781    0.00781    0.00781    0.00781    0.00781    0.00781
                         0.00781    0.00781    0.00781    0.00781    0.00781    0.00781
                         0.00781    0.00781    0.00781    0.00781    0.00781    0.00781
                         0.00781    0.00781    0.00781    0.00781    0.00781    0.00781
                         0.00781    0.00781    0.00781    0.00781    0.00781    0.00781
                         0.00781    0.00781    0.00781    0.00781    0.00781    0.00781
                         0.00781    0.00781    0.00781    0.00781    0.00781    0.00781
                         0.00781    0.00781    0.00781    0.00781    0.00781    0.00781
                         0.00781    0.00781
              wtk5       0.00391    0.00391    0.00391    0.00391    0.00391    0.00391
                         0.00391    0.00391    0.00391    0.00391    0.00391    0.00391
                         0.00391    0.00391    0.00391    0.00391    0.00391    0.00391
                         0.00391    0.00391    0.00391    0.00391    0.00391    0.00391
                         0.00391    0.00391    0.00391    0.00391    0.00391    0.00391
                         0.00391    0.00391    0.00391    0.00391    0.00391    0.00391
                         0.00391    0.00391    0.00391    0.00391    0.00391    0.00391
                         0.00391    0.00391    0.00391    0.00391    0.00391    0.00391
                         0.00391    0.00391
              wtk6       0.00391    0.00391    0.00391    0.00391    0.00391    0.00391
                         0.00391    0.00391    0.00391    0.00391    0.00391    0.00391
                         0.00391    0.00391    0.00391    0.00391    0.00391    0.00391
                         0.00391    0.00391    0.00391    0.00391    0.00391    0.00391
                         0.00391    0.00391    0.00391    0.00391    0.00391    0.00391
                         0.00391    0.00391    0.00391    0.00391    0.00391    0.00391
                         0.00391    0.00391    0.00391    0.00391    0.00391    0.00391
                         0.00391    0.00391    0.00391    0.00391    0.00391    0.00391
                         0.00391    0.00391
                       outvars : Printing only first  50 k-points.
           xangst      0.0000000000E+00  0.0000000000E+00  0.0000000000E+00
                       1.4036425458E+00  1.4036425458E+00  1.4036425458E+00
            xcart      0.0000000000E+00  0.0000000000E+00  0.0000000000E+00
                       2.6525000000E+00  2.6525000000E+00  2.6525000000E+00
             xred      0.0000000000E+00  0.0000000000E+00  0.0000000000E+00
                       2.5000000000E-01  2.5000000000E-01  2.5000000000E-01
            znucl       13.00000   33.00000

================================================================================


- Timing analysis has been suppressed with timopt=0



================================================================================

 Suggested references for the acknowledgment of ABINIT usage.

 The users of ABINIT have little formal obligations with respect to the ABINIT group
 (those specified in the GNU General Public License, http://www.gnu.org/copyleft/gpl.txt).
 However, it is common practice in the scientific literature,
 to acknowledge the efforts of people that have made the research possible.
 In this spirit, please find below suggested citations of work written by ABINIT developers,
 corresponding to implementations inside of ABINIT that you have used in the present run.
 Note also that it will be of great value to readers of publications presenting these results,
 to read papers enabling them to understand the theoretical formalism and details
 of the ABINIT implementation.
 For information on why they are suggested, see also http://www.abinit.org/about/?text=acknowledgments.

 [1] Large scale ab initio calculations based on three levels of parallelization
 F. Bottin, S. Leroux, A. Knyazev, G. Zerah, Comput. Mat. Science 42, 329, (2008).
 Comment : in case paral_kgb is non-zero. Strong suggestion to cite this paper in your publications.
 This paper is also available at http://www.arxiv.org/abs/0707.3405

 [2] Implementation of the Projector Augmented-Wave Method in the ABINIT code.
 M. Torrent, F. Jollet, F. Bottin, G. Zerah, and X. Gonze Comput. Mat. Science 42, 337, (2008).
 Comment : PAW calculations. Strong suggestion to cite this paper.

 [3] Projector augmented-wave approach to density-functional perturbation theory.
 C. Audouze, F. Jollet, M. Torrent and X. Gonze, Phys. Rev. B 73, 235101 (2006).
 Comparison between projector augmented-wave and ultrasoft pseudopotential formalisms
 at the density-functional perturbation theory level.
 C. Audouze, F. Jollet, M. Torrent and X. Gonze, Phys. Rev. B 78, 035105 (2008).
 Comment : to be cited in case the computation of response function with PAW, i.e. (rfphon=1 or rfelfd=1) and usepaw=1.
 Strong suggestion to cite these papers.

 [4] First-principles responses of solids to atomic displacements and homogeneous electric fields:,
 implementation of a conjugate-gradient algorithm. X. Gonze, Phys. Rev. B55, 10337 (1997).
 Comment : Non-vanishing rfphon and/or rfelfd, in the norm-conserving case.

 [5] Dynamical matrices, Born effective charges, dielectric permittivity tensors, and ,
 interatomic force constants from density-functional perturbation theory,
 X. Gonze and C. Lee, Phys. Rev. B55, 10355 (1997).
 Comment : Non-vanishing rfphon and/or rfelfd, in the norm-conserving case.

 [6] ABINIT : First-principles approach of materials and nanosystem properties.
 X. Gonze, B. Amadon, P.-M. Anglade, J.-M. Beuken, F. Bottin, P. Boulanger, F. Bruneval,
 D. Caliste, R. Caracas, M. Cote, T. Deutsch, L. Genovese, Ph. Ghosez, M. Giantomassi
 S. Goedecker, D.R. Hamann, P. Hermet, F. Jollet, G. Jomard, S. Leroux, M. Mancini, S. Mazevet,
 M.J.T. Oliveira, G. Onida, Y. Pouillon, T. Rangel, G.-M. Rignanese, D. Sangalli, R. Shaltaf,
 M. Torrent, M.J. Verstraete, G. Zerah, J.W. Zwanziger
 Computer Phys. Comm. 180, 2582-2615 (2009).
 Comment : the third generic paper describing the ABINIT project.
 Note that a version of this paper, that is not formatted for Computer Phys. Comm. 
 is available at http://www.abinit.org/about/ABINIT_CPC_v10.pdf .
 The licence allows the authors to put it on the Web.

 [7] A brief introduction to the ABINIT software package.
 X. Gonze, G.-M. Rignanese, M. Verstraete, J.-M. Beuken, Y. Pouillon, R. Caracas, F. Jollet,
 M. Torrent, G. Zerah, M. Mikami, Ph. Ghosez, M. Veithen, J.-Y. Raty, V. Olevano, F. Bruneval,
 L. Reining, R. Godby, G. Onida, D.R. Hamann, and D.C. Allan.
 Z. Kristallogr. 220, 558-562 (2005).
 Comment : the second generic paper describing the ABINIT project. Note that this paper
 should be cited especially if you are using the GW part of ABINIT, as several authors
 of this part are not in the list of authors of the first or third paper.
 The .pdf of the latter paper is available at http://www.abinit.org/about/zfk_0505-06_558-562.pdf.
 Note that it should not redistributed (Copyright by Oldenburg Wissenshaftverlag,
 the licence allows the authors to put it on the Web).
-
- Proc.   0 individual time (sec): cpu=         21.8  wall=         22.0

================================================================================

 Calculation completed.
.Delivered    0 WARNINGs and  23 COMMENTs to log file.
+Overall time at end (sec) : cpu=         87.5  wall=         87.7
