
.Version 7.9.3 of ABINIT 
.(MPI version, prepared for a x86_64_linux_gnu4.7 computer) 

.Copyright (C) 1998-2014 ABINIT group . 
 ABINIT comes with ABSOLUTELY NO WARRANTY.
 It is free software, and you are welcome to redistribute it
 under certain conditions (GNU General Public License,
 see ~abinit/COPYING or http://www.gnu.org/copyleft/gpl.txt).

 ABINIT is a project of the Universite Catholique de Louvain,
 Corning Inc. and other collaborators, see ~abinit/doc/developers/contributors.txt .
 Please read ~abinit/doc/users/acknowledgments.html for suggested
 acknowledgments of the ABINIT effort.
 For more information, see http://www.abinit.org .

.Starting date : Sat 30 Aug 2014.
- ( at 22h19 )
  
- input  file    -> t21.in
- output file    -> t21.out
- root for input  files -> t20o
- root for output files -> t21o


 Symmetries : space group P1 (#  1); Bravais aP (primitive triclinic)
================================================================================
 Values of the parameters that define the memory need of the present run
   intxc =         1  ionmov =         1    iscf =         3 xclevel =         1
  lmnmax =         2   lnmax =         2   mband =         5  mffmem =         1
P  mgfft =        30   mkmem =         1 mpssoang=         3     mpw =       338
  mqgrid =      3001   natom =         2    nfft =     12000    nkpt =         1
  nloalg =         4  nspden =         2 nspinor =         1  nsppol =         2
    nsym =         1  n1xccc =      2501  ntypat =         1  occopt =         2
================================================================================
P This job should need less than                       3.541 Mbytes of memory.
P Max. in XC chain
P            3 blocks of mpw  integer numbers, for      0.004 Mbytes.
P           20 blocks of mpw  real(dp)  numbers, for      0.052 Mbytes.
P           32 blocks of nfft real(dp)  numbers, for      2.930 Mbytes.
P              Additional     real(dp)  numbers, for      0.319 Mbytes.
P              With residue estimated to be             0.237 Mbytes.
P
P Comparison of the memory needs of different chains
P Main chain + fourwf.f                 3.390 Mbytes.
P Main chain + nonlop.f + opernl.f      3.070 Mbytes.
P XC chain                              3.541 Mbytes.
P mkrho chain                           2.738 Mbytes.
P fourdp chain                          2.534 Mbytes.
- parallel k-point chain                2.702 Mbytes.
P newvtr chain                          3.251 Mbytes.
  Rough estimation (10% accuracy) of disk space for files :
_ WF disk file :      0.043 Mbytes ; DEN or POT disk file :      0.185 Mbytes.
================================================================================

--------------------------------------------------------------------------------
------------- Echo of variables that govern the present computation ------------
--------------------------------------------------------------------------------
-
- outvars: echo of selected default values                                      
-   accesswff0 =  0 , fftalg0 =112 , wfoptalg0 =  0
-
- outvars: echo of global parameters not present in the input file              
-  max_nthreads =    0
-
 -outvars: echo values of preprocessed input variables --------
            acell      1.2000000000E+01  8.0000000000E+00  8.0000000000E+00 Bohr
              amu      2.80000000E+01
           diemac      1.00000000E+00
           diemix      3.33333333E-01
            dtion      6.75000000E+02
             ecut      7.00000000E+00 Hartree
           enunit           2
-          fftalg         112
            intxc           1
           ionmov           1
           iprcch           1
           irdwfk           1
             iscf           3
           istwfk        2
           kptopt           0
P           mkmem           1
            natom           2
            nband           5       3
            ngfft          30      20      20
             nkpt           1
            nline           3
           nspden           2
           nsppol           2
            nstep          20
             nsym           1
            ntime          10
           ntypat           1
              occ      1.000000  1.000000  1.000000  1.000000  1.000000
                       1.000000  1.000000  1.000000
           occopt           2
           prtvol          10
          spgroup           1
           timopt          -1
           tolmxf      1.00000000E-04
           tolwfr      1.00000000E-13
            typat      1  1
              vis      3.00000000E+02
           xangst     -1.1229140366E+00  0.0000000000E+00  0.0000000000E+00
                       1.1229140366E+00  0.0000000000E+00  0.0000000000E+00
            xcart     -2.1220000000E+00  0.0000000000E+00  0.0000000000E+00
                       2.1220000000E+00  0.0000000000E+00  0.0000000000E+00
             xred     -1.7683333333E-01  0.0000000000E+00  0.0000000000E+00
                       1.7683333333E-01  0.0000000000E+00  0.0000000000E+00
            znucl       14.00000

================================================================================

 chkinp: Checking input parameters for consistency.

================================================================================
== DATASET  1 ==================================================================
-   nproc =    1

 Exchange-correlation functional for the present dataset will be:
  LDA: new Teter (4/93) with spin-polarized option - ixc=1
 Citation for XC functional:
  S. Goedecker, M. Teter, J. Huetter, PRB 54, 1703 (1996)

 Real(R)+Recip(G) space primitive vectors, cartesian coordinates (Bohr,Bohr^-1):
 R(1)= 12.0000000  0.0000000  0.0000000  G(1)=  0.0833333  0.0000000  0.0000000
 R(2)=  0.0000000  8.0000000  0.0000000  G(2)=  0.0000000  0.1250000  0.0000000
 R(3)=  0.0000000  0.0000000  8.0000000  G(3)=  0.0000000  0.0000000  0.1250000
 Unit cell volume ucvol=  7.6800000E+02 bohr^3
 Angles (23,13,12)=  9.00000000E+01  9.00000000E+01  9.00000000E+01 degrees

 getcut: wavevector=  0.0000  0.0000  0.0000  ngfft=  30  20  20
         ecut(hartree)=      7.000   => boxcut(ratio)=   2.09906

--- Pseudopotential description ------------------------------------------------
- pspini: atom type   1  psp file is /home/gonze/ABINIT/ABINITv7.9.3/trunk/7.9.3-private/tests/Psps_for_tests/14si.pspnc
- pspatm: opening atomic psp file    /home/gonze/ABINIT/ABINITv7.9.3/trunk/7.9.3-private/tests/Psps_for_tests/14si.pspnc
-  Troullier-Martins psp for element  Si        Thu Oct 27 17:31:21 EDT 1994
- 14.00000   4.00000    940714                znucl, zion, pspdat
    1    1    2    2      2001   0.00000      pspcod,pspxc,lmax,lloc,mmax,r2well
    0   5.907  14.692    1   2.0872718        l,e99.0,e99.9,nproj,rcpsp
   0.00000000   0.00000000   0.00000000   0.00000000     rms, ekb1, ekb2, epsatm
    1   2.617   4.181    1   2.0872718        l,e99.0,e99.9,nproj,rcpsp
   0.00000000   0.00000000   0.00000000   0.00000000     rms, ekb1, ekb2, epsatm
    2   0.000   0.000    0   2.0872718        l,e99.0,e99.9,nproj,rcpsp
   0.00000000   0.00000000   0.00000000   0.00000000     rms, ekb1, ekb2, epsatm
    1.80626423934776    0.22824404341771    1.17378968127746   rchrg,fchrg,qchrg
 pspatm: epsatm=    1.43386982
         --- l  ekb(1:nproj) -->
             0    3.287949
             1    1.849886
 pspatm: atomic psp has been read  and splines computed

   2.29419171E+01                                ecore*ucvol(ha*bohr**3)
--------------------------------------------------------------------------------

-inwffil : will read wavefunctions from disk file t20o_WFK
P newkpt: treating      5 bands with npw=     338 for ikpt=   1 by node    0
P newkpt: treating      3 bands with npw=     338 for ikpt=   1 by node    0

_setup2: Arith. and geom. avg. npw (full set) are     675.000     675.000

================================================================================

=== [ionmov= 1] Molecular dynamics with viscosity (vis= 3.00000E+02)        
================================================================================

--- Iteration: ( 1/10) Internal Cycle: (1/4)
--------------------------------------------------------------------------------

---SELF-CONSISTENT-FIELD CONVERGENCE--------------------------------------------

     iter   Etot(hartree)      deltaE(h)  residm     vres2

 ETOT  1  -8.6582498418312    -8.658E+00 1.623E-06 4.124E+01

 prteigrs : about to open file t21o_TIMA_EIG
 Fermi (or HOMO) energy (hartree) =  -0.06698   Average Vxc (hartree)=  -0.22117
 Eigenvalues (hartree) for nkpt=   1  k points, SPIN UP:
 kpt#   1, nband=  5, wtk=  1.00000, kpt=  0.0000  0.0000  0.0000 (reduced coord)
  -0.39828  -0.22399  -0.09890  -0.06698  -0.06698
 Eigenvalues (hartree) for nkpt=   1  k points, SPIN DOWN:
 kpt#   1, nband=  3, wtk=  1.00000, kpt=  0.0000  0.0000  0.0000 (reduced coord)
  -0.36187  -0.19298  -0.08237
 Fermi (or HOMO) energy (eV) =  -1.82256   Average Vxc (eV)=  -6.01826
 Eigenvalues (   eV  ) for nkpt=   1  k points, SPIN UP:
 kpt#   1, nband=  5, wtk=  1.00000, kpt=  0.0000  0.0000  0.0000 (reduced coord)
 -10.83779  -6.09510  -2.69125  -1.82256  -1.82256
 Eigenvalues (   eV  ) for nkpt=   1  k points, SPIN DOWN:
 kpt#   1, nband=  3, wtk=  1.00000, kpt=  0.0000  0.0000  0.0000 (reduced coord)
  -9.84704  -5.25137  -2.24138

 ETOT  2  -8.6707673136961    -1.252E-02 2.898E-07 2.899E+00

 prteigrs : about to open file t21o_TIMA_EIG
 Fermi (or HOMO) energy (hartree) =  -0.04979   Average Vxc (hartree)=  -0.22251
 Eigenvalues (hartree) for nkpt=   1  k points, SPIN UP:
 kpt#   1, nband=  5, wtk=  1.00000, kpt=  0.0000  0.0000  0.0000 (reduced coord)
  -0.37452  -0.21766  -0.09482  -0.04979  -0.04979
 Eigenvalues (hartree) for nkpt=   1  k points, SPIN DOWN:
 kpt#   1, nband=  3, wtk=  1.00000, kpt=  0.0000  0.0000  0.0000 (reduced coord)
  -0.33831  -0.18884  -0.07937
 Fermi (or HOMO) energy (eV) =  -1.35483   Average Vxc (eV)=  -6.05468
 Eigenvalues (   eV  ) for nkpt=   1  k points, SPIN UP:
 kpt#   1, nband=  5, wtk=  1.00000, kpt=  0.0000  0.0000  0.0000 (reduced coord)
 -10.19127  -5.92295  -2.58018  -1.35483  -1.35483
 Eigenvalues (   eV  ) for nkpt=   1  k points, SPIN DOWN:
 kpt#   1, nband=  3, wtk=  1.00000, kpt=  0.0000  0.0000  0.0000 (reduced coord)
  -9.20578  -5.13850  -2.15978

 ETOT  3  -8.6716275453843    -8.602E-04 3.709E-05 6.630E-03

 prteigrs : about to open file t21o_TIMA_EIG
 Fermi (or HOMO) energy (hartree) =  -0.04665   Average Vxc (hartree)=  -0.22296
 Eigenvalues (hartree) for nkpt=   1  k points, SPIN UP:
 kpt#   1, nband=  5, wtk=  1.00000, kpt=  0.0000  0.0000  0.0000 (reduced coord)
  -0.36942  -0.21825  -0.09610  -0.04665  -0.04665
 Eigenvalues (hartree) for nkpt=   1  k points, SPIN DOWN:
 kpt#   1, nband=  3, wtk=  1.00000, kpt=  0.0000  0.0000  0.0000 (reduced coord)
  -0.33266  -0.18967  -0.08034
 Fermi (or HOMO) energy (eV) =  -1.26942   Average Vxc (eV)=  -6.06701
 Eigenvalues (   eV  ) for nkpt=   1  k points, SPIN UP:
 kpt#   1, nband=  5, wtk=  1.00000, kpt=  0.0000  0.0000  0.0000 (reduced coord)
 -10.05232  -5.93899  -2.61491  -1.26942  -1.26942
 Eigenvalues (   eV  ) for nkpt=   1  k points, SPIN DOWN:
 kpt#   1, nband=  3, wtk=  1.00000, kpt=  0.0000  0.0000  0.0000 (reduced coord)
  -9.05215  -5.16112  -2.18623

 ETOT  4  -8.6716305404020    -2.995E-06 2.833E-08 2.629E-03

 prteigrs : about to open file t21o_TIMA_EIG
 Fermi (or HOMO) energy (hartree) =  -0.04723   Average Vxc (hartree)=  -0.22295
 Eigenvalues (hartree) for nkpt=   1  k points, SPIN UP:
 kpt#   1, nband=  5, wtk=  1.00000, kpt=  0.0000  0.0000  0.0000 (reduced coord)
  -0.37007  -0.21880  -0.09667  -0.04723  -0.04723
 Eigenvalues (hartree) for nkpt=   1  k points, SPIN DOWN:
 kpt#   1, nband=  3, wtk=  1.00000, kpt=  0.0000  0.0000  0.0000 (reduced coord)
  -0.33313  -0.19015  -0.08082
 Fermi (or HOMO) energy (eV) =  -1.28508   Average Vxc (eV)=  -6.06675
 Eigenvalues (   eV  ) for nkpt=   1  k points, SPIN UP:
 kpt#   1, nband=  5, wtk=  1.00000, kpt=  0.0000  0.0000  0.0000 (reduced coord)
 -10.07022  -5.95392  -2.63050  -1.28508  -1.28508
 Eigenvalues (   eV  ) for nkpt=   1  k points, SPIN DOWN:
 kpt#   1, nband=  3, wtk=  1.00000, kpt=  0.0000  0.0000  0.0000 (reduced coord)
  -9.06488  -5.17431  -2.19934

 ETOT  5  -8.6716315738410    -1.033E-06 2.110E-08 1.044E-04

 prteigrs : about to open file t21o_TIMA_EIG
 Fermi (or HOMO) energy (hartree) =  -0.04727   Average Vxc (hartree)=  -0.22294
 Eigenvalues (hartree) for nkpt=   1  k points, SPIN UP:
 kpt#   1, nband=  5, wtk=  1.00000, kpt=  0.0000  0.0000  0.0000 (reduced coord)
  -0.37022  -0.21882  -0.09672  -0.04727  -0.04727
 Eigenvalues (hartree) for nkpt=   1  k points, SPIN DOWN:
 kpt#   1, nband=  3, wtk=  1.00000, kpt=  0.0000  0.0000  0.0000 (reduced coord)
  -0.33314  -0.19025  -0.08091
 Fermi (or HOMO) energy (eV) =  -1.28638   Average Vxc (eV)=  -6.06651
 Eigenvalues (   eV  ) for nkpt=   1  k points, SPIN UP:
 kpt#   1, nband=  5, wtk=  1.00000, kpt=  0.0000  0.0000  0.0000 (reduced coord)
 -10.07428  -5.95426  -2.63192  -1.28638  -1.28638
 Eigenvalues (   eV  ) for nkpt=   1  k points, SPIN DOWN:
 kpt#   1, nband=  3, wtk=  1.00000, kpt=  0.0000  0.0000  0.0000 (reduced coord)
  -9.06524  -5.17687  -2.20160

 ETOT  6  -8.6716316038817    -3.004E-08 1.733E-09 1.062E-05

 prteigrs : about to open file t21o_TIMA_EIG
 Fermi (or HOMO) energy (hartree) =  -0.04725   Average Vxc (hartree)=  -0.22294
 Eigenvalues (hartree) for nkpt=   1  k points, SPIN UP:
 kpt#   1, nband=  5, wtk=  1.00000, kpt=  0.0000  0.0000  0.0000 (reduced coord)
  -0.37020  -0.21880  -0.09670  -0.04725  -0.04725
 Eigenvalues (hartree) for nkpt=   1  k points, SPIN DOWN:
 kpt#   1, nband=  3, wtk=  1.00000, kpt=  0.0000  0.0000  0.0000 (reduced coord)
  -0.33309  -0.19024  -0.08090
 Fermi (or HOMO) energy (eV) =  -1.28582   Average Vxc (eV)=  -6.06658
 Eigenvalues (   eV  ) for nkpt=   1  k points, SPIN UP:
 kpt#   1, nband=  5, wtk=  1.00000, kpt=  0.0000  0.0000  0.0000 (reduced coord)
 -10.07364  -5.95379  -2.63147  -1.28582  -1.28582
 Eigenvalues (   eV  ) for nkpt=   1  k points, SPIN DOWN:
 kpt#   1, nband=  3, wtk=  1.00000, kpt=  0.0000  0.0000  0.0000 (reduced coord)
  -9.06397  -5.17680  -2.20130

 ETOT  7  -8.6716316099985    -6.117E-09 3.886E-10 2.582E-06

 prteigrs : about to open file t21o_TIMA_EIG
 Fermi (or HOMO) energy (hartree) =  -0.04725   Average Vxc (hartree)=  -0.22294
 Eigenvalues (hartree) for nkpt=   1  k points, SPIN UP:
 kpt#   1, nband=  5, wtk=  1.00000, kpt=  0.0000  0.0000  0.0000 (reduced coord)
  -0.37019  -0.21880  -0.09670  -0.04725  -0.04725
 Eigenvalues (hartree) for nkpt=   1  k points, SPIN DOWN:
 kpt#   1, nband=  3, wtk=  1.00000, kpt=  0.0000  0.0000  0.0000 (reduced coord)
  -0.33308  -0.19025  -0.08089
 Fermi (or HOMO) energy (eV) =  -1.28579   Average Vxc (eV)=  -6.06661
 Eigenvalues (   eV  ) for nkpt=   1  k points, SPIN UP:
 kpt#   1, nband=  5, wtk=  1.00000, kpt=  0.0000  0.0000  0.0000 (reduced coord)
 -10.07350  -5.95372  -2.63135  -1.28579  -1.28579
 Eigenvalues (   eV  ) for nkpt=   1  k points, SPIN DOWN:
 kpt#   1, nband=  3, wtk=  1.00000, kpt=  0.0000  0.0000  0.0000 (reduced coord)
  -9.06350  -5.17691  -2.20123

 ETOT  8  -8.6716316113268    -1.328E-09 3.400E-11 1.016E-06

 prteigrs : about to open file t21o_TIMA_EIG
 Fermi (or HOMO) energy (hartree) =  -0.04725   Average Vxc (hartree)=  -0.22294
 Eigenvalues (hartree) for nkpt=   1  k points, SPIN UP:
 kpt#   1, nband=  5, wtk=  1.00000, kpt=  0.0000  0.0000  0.0000 (reduced coord)
  -0.37020  -0.21879  -0.09670  -0.04725  -0.04725
 Eigenvalues (hartree) for nkpt=   1  k points, SPIN DOWN:
 kpt#   1, nband=  3, wtk=  1.00000, kpt=  0.0000  0.0000  0.0000 (reduced coord)
  -0.33307  -0.19025  -0.08089
 Fermi (or HOMO) energy (eV) =  -1.28584   Average Vxc (eV)=  -6.06662
 Eigenvalues (   eV  ) for nkpt=   1  k points, SPIN UP:
 kpt#   1, nband=  5, wtk=  1.00000, kpt=  0.0000  0.0000  0.0000 (reduced coord)
 -10.07353  -5.95371  -2.63130  -1.28584  -1.28584
 Eigenvalues (   eV  ) for nkpt=   1  k points, SPIN DOWN:
 kpt#   1, nband=  3, wtk=  1.00000, kpt=  0.0000  0.0000  0.0000 (reduced coord)
  -9.06339  -5.17696  -2.20119

 ETOT  9  -8.6716316121735    -8.468E-10 5.594E-11 4.118E-08

 prteigrs : about to open file t21o_TIMA_EIG
 Fermi (or HOMO) energy (hartree) =  -0.04726   Average Vxc (hartree)=  -0.22294
 Eigenvalues (hartree) for nkpt=   1  k points, SPIN UP:
 kpt#   1, nband=  5, wtk=  1.00000, kpt=  0.0000  0.0000  0.0000 (reduced coord)
  -0.37020  -0.21879  -0.09669  -0.04726  -0.04726
 Eigenvalues (hartree) for nkpt=   1  k points, SPIN DOWN:
 kpt#   1, nband=  3, wtk=  1.00000, kpt=  0.0000  0.0000  0.0000 (reduced coord)
  -0.33307  -0.19025  -0.08089
 Fermi (or HOMO) energy (eV) =  -1.28591   Average Vxc (eV)=  -6.06663
 Eigenvalues (   eV  ) for nkpt=   1  k points, SPIN UP:
 kpt#   1, nband=  5, wtk=  1.00000, kpt=  0.0000  0.0000  0.0000 (reduced coord)
 -10.07357  -5.95366  -2.63120  -1.28591  -1.28591
 Eigenvalues (   eV  ) for nkpt=   1  k points, SPIN DOWN:
 kpt#   1, nband=  3, wtk=  1.00000, kpt=  0.0000  0.0000  0.0000 (reduced coord)
  -9.06322  -5.17702  -2.20114

 ETOT 10  -8.6716316122136    -4.009E-11 7.204E-13 1.444E-08

 prteigrs : about to open file t21o_TIMA_EIG
 Fermi (or HOMO) energy (hartree) =  -0.04726   Average Vxc (hartree)=  -0.22294
 Eigenvalues (hartree) for nkpt=   1  k points, SPIN UP:
 kpt#   1, nband=  5, wtk=  1.00000, kpt=  0.0000  0.0000  0.0000 (reduced coord)
  -0.37020  -0.21879  -0.09670  -0.04726  -0.04726
 Eigenvalues (hartree) for nkpt=   1  k points, SPIN DOWN:
 kpt#   1, nband=  3, wtk=  1.00000, kpt=  0.0000  0.0000  0.0000 (reduced coord)
  -0.33307  -0.19025  -0.08089
 Fermi (or HOMO) energy (eV) =  -1.28593   Average Vxc (eV)=  -6.06662
 Eigenvalues (   eV  ) for nkpt=   1  k points, SPIN UP:
 kpt#   1, nband=  5, wtk=  1.00000, kpt=  0.0000  0.0000  0.0000 (reduced coord)
 -10.07359  -5.95367  -2.63121  -1.28593  -1.28593
 Eigenvalues (   eV  ) for nkpt=   1  k points, SPIN DOWN:
 kpt#   1, nband=  3, wtk=  1.00000, kpt=  0.0000  0.0000  0.0000 (reduced coord)
  -9.06322  -5.17703  -2.20115

 ETOT 11  -8.6716316122280    -1.433E-11 3.116E-13 3.753E-09

 prteigrs : about to open file t21o_TIMA_EIG
 Fermi (or HOMO) energy (hartree) =  -0.04726   Average Vxc (hartree)=  -0.22294
 Eigenvalues (hartree) for nkpt=   1  k points, SPIN UP:
 kpt#   1, nband=  5, wtk=  1.00000, kpt=  0.0000  0.0000  0.0000 (reduced coord)
  -0.37020  -0.21879  -0.09670  -0.04726  -0.04726
 Eigenvalues (hartree) for nkpt=   1  k points, SPIN DOWN:
 kpt#   1, nband=  3, wtk=  1.00000, kpt=  0.0000  0.0000  0.0000 (reduced coord)
  -0.33307  -0.19025  -0.08089
 Fermi (or HOMO) energy (eV) =  -1.28593   Average Vxc (eV)=  -6.06662
 Eigenvalues (   eV  ) for nkpt=   1  k points, SPIN UP:
 kpt#   1, nband=  5, wtk=  1.00000, kpt=  0.0000  0.0000  0.0000 (reduced coord)
 -10.07360  -5.95366  -2.63121  -1.28593  -1.28593
 Eigenvalues (   eV  ) for nkpt=   1  k points, SPIN DOWN:
 kpt#   1, nband=  3, wtk=  1.00000, kpt=  0.0000  0.0000  0.0000 (reduced coord)
  -9.06322  -5.17704  -2.20116

 ETOT 12  -8.6716316122323    -4.340E-12 1.664E-13 4.721E-10

 prteigrs : about to open file t21o_TIMA_EIG
 Fermi (or HOMO) energy (hartree) =  -0.04726   Average Vxc (hartree)=  -0.22294
 Eigenvalues (hartree) for nkpt=   1  k points, SPIN UP:
 kpt#   1, nband=  5, wtk=  1.00000, kpt=  0.0000  0.0000  0.0000 (reduced coord)
  -0.37020  -0.21879  -0.09670  -0.04726  -0.04726
 Eigenvalues (hartree) for nkpt=   1  k points, SPIN DOWN:
 kpt#   1, nband=  3, wtk=  1.00000, kpt=  0.0000  0.0000  0.0000 (reduced coord)
  -0.33307  -0.19025  -0.08089
 Fermi (or HOMO) energy (eV) =  -1.28592   Average Vxc (eV)=  -6.06662
 Eigenvalues (   eV  ) for nkpt=   1  k points, SPIN UP:
 kpt#   1, nband=  5, wtk=  1.00000, kpt=  0.0000  0.0000  0.0000 (reduced coord)
 -10.07361  -5.95365  -2.63121  -1.28592  -1.28592
 Eigenvalues (   eV  ) for nkpt=   1  k points, SPIN DOWN:
 kpt#   1, nband=  3, wtk=  1.00000, kpt=  0.0000  0.0000  0.0000 (reduced coord)
  -9.06321  -5.17705  -2.20117

 ETOT 13  -8.6716316122323     5.329E-15 8.077E-14 1.592E-10

 prteigrs : about to open file t21o_TIMA_EIG
 Fermi (or HOMO) energy (hartree) =  -0.04726   Average Vxc (hartree)=  -0.22294
 Eigenvalues (hartree) for nkpt=   1  k points, SPIN UP:
 kpt#   1, nband=  5, wtk=  1.00000, kpt=  0.0000  0.0000  0.0000 (reduced coord)
  -0.37020  -0.21879  -0.09670  -0.04726  -0.04726
 Eigenvalues (hartree) for nkpt=   1  k points, SPIN DOWN:
 kpt#   1, nband=  3, wtk=  1.00000, kpt=  0.0000  0.0000  0.0000 (reduced coord)
  -0.33307  -0.19025  -0.08089
 Fermi (or HOMO) energy (eV) =  -1.28592   Average Vxc (eV)=  -6.06662
 Eigenvalues (   eV  ) for nkpt=   1  k points, SPIN UP:
 kpt#   1, nband=  5, wtk=  1.00000, kpt=  0.0000  0.0000  0.0000 (reduced coord)
 -10.07361  -5.95365  -2.63121  -1.28592  -1.28592
 Eigenvalues (   eV  ) for nkpt=   1  k points, SPIN DOWN:
 kpt#   1, nband=  3, wtk=  1.00000, kpt=  0.0000  0.0000  0.0000 (reduced coord)
  -9.06321  -5.17705  -2.20117

 At SCF step   13   max residual=  8.08E-14 < tolwfr=  1.00E-13 =>converged.

 Cartesian components of stress tensor (hartree/bohr^3)
  sigma(1 1)=  1.36716135E-04  sigma(3 2)=  0.00000000E+00
  sigma(2 2)=  1.10398982E-04  sigma(3 1)=  0.00000000E+00
  sigma(3 3)=  1.10398982E-04  sigma(2 1)=  0.00000000E+00


---OUTPUT-----------------------------------------------------------------------

 Cartesian coordinates (xcart) [bohr]
 -2.12200000000000E+00  0.00000000000000E+00  0.00000000000000E+00
  2.12200000000000E+00  0.00000000000000E+00  0.00000000000000E+00
 Reduced coordinates (xred)
 -1.76833333333333E-01  0.00000000000000E+00  0.00000000000000E+00
  1.76833333333333E-01  0.00000000000000E+00  0.00000000000000E+00
 Cartesian forces (fcart) [Ha/bohr]; max,rms= 1.77516E-02 1.02489E-02 (free atoms)
 -1.77515757672206E-02 -5.23500183257440E-17  3.22984784684228E-17
  1.77515757672206E-02  5.23500183257441E-17 -3.22984784684228E-17
 Reduced forces (fred)
  2.13018909206648E-01  1.64251732611643E-15  7.30787362052695E-16
 -2.13018909206646E-01  8.04917032904524E-16  1.24756301754746E-15
 Cartesian velocities (vel) [bohr*Ha/hbar]; max,rms= 0.00000E+00 0.00000E+00 (free atoms)
  0.00000000000000E+00  0.00000000000000E+00  0.00000000000000E+00
  0.00000000000000E+00  0.00000000000000E+00  0.00000000000000E+00
 Kinetic energy of ions (ekin) [Ha]=  0.00000000000000E+00
 Total energy (etotal) [Ha]= -8.67163161223229E+00

--- Iteration: ( 1/10) Internal Cycle: (2/4)
--------------------------------------------------------------------------------

---SELF-CONSISTENT-FIELD CONVERGENCE--------------------------------------------

     iter   Etot(hartree)      deltaE(h)  residm     vres2

 ETOT  1  -8.6716316122324    -8.672E+00 8.040E-14 6.955E-12

 prteigrs : about to open file t21o_TIMB_EIG
 Fermi (or HOMO) energy (hartree) =  -0.04726   Average Vxc (hartree)=  -0.22294
 Eigenvalues (hartree) for nkpt=   1  k points, SPIN UP:
 kpt#   1, nband=  5, wtk=  1.00000, kpt=  0.0000  0.0000  0.0000 (reduced coord)
  -0.37020  -0.21879  -0.09669  -0.04726  -0.04726
 Eigenvalues (hartree) for nkpt=   1  k points, SPIN DOWN:
 kpt#   1, nband=  3, wtk=  1.00000, kpt=  0.0000  0.0000  0.0000 (reduced coord)
  -0.33307  -0.19025  -0.08089
 Fermi (or HOMO) energy (eV) =  -1.28592   Average Vxc (eV)=  -6.06662
 Eigenvalues (   eV  ) for nkpt=   1  k points, SPIN UP:
 kpt#   1, nband=  5, wtk=  1.00000, kpt=  0.0000  0.0000  0.0000 (reduced coord)
 -10.07361  -5.95365  -2.63120  -1.28592  -1.28592
 Eigenvalues (   eV  ) for nkpt=   1  k points, SPIN DOWN:
 kpt#   1, nband=  3, wtk=  1.00000, kpt=  0.0000  0.0000  0.0000 (reduced coord)
  -9.06321  -5.17705  -2.20117

 At SCF step    1   max residual=  8.04E-14 < tolwfr=  1.00E-13 =>converged.

 Cartesian components of stress tensor (hartree/bohr^3)
  sigma(1 1)=  1.36716021E-04  sigma(3 2)=  0.00000000E+00
  sigma(2 2)=  1.10399118E-04  sigma(3 1)=  0.00000000E+00
  sigma(3 3)=  1.10399118E-04  sigma(2 1)=  0.00000000E+00


---OUTPUT-----------------------------------------------------------------------

 Cartesian coordinates (xcart) [bohr]
 -2.12200000000000E+00  0.00000000000000E+00  0.00000000000000E+00
  2.12200000000000E+00  0.00000000000000E+00  0.00000000000000E+00
 Reduced coordinates (xred)
 -1.76833333333333E-01  0.00000000000000E+00  0.00000000000000E+00
  1.76833333333333E-01  0.00000000000000E+00  0.00000000000000E+00
 Cartesian forces (fcart) [Ha/bohr]; max,rms= 1.77515E-02 1.02488E-02 (free atoms)
 -1.77514840238683E-02 -4.34801177447583E-17  5.64292464604317E-17
  1.77514840238683E-02  4.34801177447583E-17 -5.64292464604317E-17
 Reduced forces (fred)
  2.13017808286423E-01  1.47752611608359E-15 -1.96844892948778E-16
 -2.13017808286415E-01  7.81844232167457E-16  7.06023050418129E-16
 Cartesian velocities (vel) [bohr*Ha/hbar]; max,rms= 1.17380E-04 6.77691E-05 (free atoms)
 -1.17379580992975E-04 -3.46156493182830E-19  2.13568751250508E-19
  1.17379580992975E-04  3.46156493182830E-19 -2.13568751250508E-19
 Kinetic energy of ions (ekin) [Ha]=  7.03239477363471E-04
 Total energy (etotal) [Ha]= -8.67163161223237E+00

 Difference of energy with previous step (new-old):
           Absolute (Ha)=-7.10543E-14
           Relative     =-8.19388E-15

--- Iteration: ( 1/10) Internal Cycle: (3/4)
--------------------------------------------------------------------------------

---SELF-CONSISTENT-FIELD CONVERGENCE--------------------------------------------

     iter   Etot(hartree)      deltaE(h)  residm     vres2

 ETOT  1  -8.6702731212111    -8.670E+00 3.919E-07 7.485E+00

 prteigrs : about to open file t21o_TIMC_EIG
 Fermi (or HOMO) energy (hartree) =  -0.03597   Average Vxc (hartree)=  -0.22407
 Eigenvalues (hartree) for nkpt=   1  k points, SPIN UP:
 kpt#   1, nband=  5, wtk=  1.00000, kpt=  0.0000  0.0000  0.0000 (reduced coord)
  -0.35458  -0.21875  -0.09614  -0.03597  -0.03597
 Eigenvalues (hartree) for nkpt=   1  k points, SPIN DOWN:
 kpt#   1, nband=  3, wtk=  1.00000, kpt=  0.0000  0.0000  0.0000 (reduced coord)
  -0.31830  -0.19093  -0.08014
 Fermi (or HOMO) energy (eV) =  -0.97866   Average Vxc (eV)=  -6.09736
 Eigenvalues (   eV  ) for nkpt=   1  k points, SPIN UP:
 kpt#   1, nband=  5, wtk=  1.00000, kpt=  0.0000  0.0000  0.0000 (reduced coord)
  -9.64870  -5.95238  -2.61613  -0.97866  -0.97866
 Eigenvalues (   eV  ) for nkpt=   1  k points, SPIN DOWN:
 kpt#   1, nband=  3, wtk=  1.00000, kpt=  0.0000  0.0000  0.0000 (reduced coord)
  -8.66150  -5.19548  -2.18059

 ETOT  2  -8.6725443922606    -2.271E-03 1.213E-08 4.802E-01

 prteigrs : about to open file t21o_TIMC_EIG
 Fermi (or HOMO) energy (hartree) =  -0.04253   Average Vxc (hartree)=  -0.22351
 Eigenvalues (hartree) for nkpt=   1  k points, SPIN UP:
 kpt#   1, nband=  5, wtk=  1.00000, kpt=  0.0000  0.0000  0.0000 (reduced coord)
  -0.36346  -0.22101  -0.09785  -0.04253  -0.04253
 Eigenvalues (hartree) for nkpt=   1  k points, SPIN DOWN:
 kpt#   1, nband=  3, wtk=  1.00000, kpt=  0.0000  0.0000  0.0000 (reduced coord)
  -0.32678  -0.19223  -0.08168
 Fermi (or HOMO) energy (eV) =  -1.15729   Average Vxc (eV)=  -6.08196
 Eigenvalues (   eV  ) for nkpt=   1  k points, SPIN UP:
 kpt#   1, nband=  5, wtk=  1.00000, kpt=  0.0000  0.0000  0.0000 (reduced coord)
  -9.89037  -6.01405  -2.66265  -1.15729  -1.15729
 Eigenvalues (   eV  ) for nkpt=   1  k points, SPIN DOWN:
 kpt#   1, nband=  3, wtk=  1.00000, kpt=  0.0000  0.0000  0.0000 (reduced coord)
  -8.89214  -5.23087  -2.22262

 ETOT  3  -8.6726912223870    -1.468E-04 6.592E-06 9.663E-04

 prteigrs : about to open file t21o_TIMC_EIG
 Fermi (or HOMO) energy (hartree) =  -0.04365   Average Vxc (hartree)=  -0.22333
 Eigenvalues (hartree) for nkpt=   1  k points, SPIN UP:
 kpt#   1, nband=  5, wtk=  1.00000, kpt=  0.0000  0.0000  0.0000 (reduced coord)
  -0.36536  -0.22068  -0.09732  -0.04365  -0.04365
 Eigenvalues (hartree) for nkpt=   1  k points, SPIN DOWN:
 kpt#   1, nband=  3, wtk=  1.00000, kpt=  0.0000  0.0000  0.0000 (reduced coord)
  -0.32884  -0.19178  -0.08131
 Fermi (or HOMO) energy (eV) =  -1.18780   Average Vxc (eV)=  -6.07710
 Eigenvalues (   eV  ) for nkpt=   1  k points, SPIN UP:
 kpt#   1, nband=  5, wtk=  1.00000, kpt=  0.0000  0.0000  0.0000 (reduced coord)
  -9.94194  -6.00500  -2.64818  -1.18780  -1.18780
 Eigenvalues (   eV  ) for nkpt=   1  k points, SPIN DOWN:
 kpt#   1, nband=  3, wtk=  1.00000, kpt=  0.0000  0.0000  0.0000 (reduced coord)
  -8.94823  -5.21873  -2.21265

 ETOT  4  -8.6726917039103    -4.815E-07 4.425E-09 3.549E-04

 prteigrs : about to open file t21o_TIMC_EIG
 Fermi (or HOMO) energy (hartree) =  -0.04343   Average Vxc (hartree)=  -0.22334
 Eigenvalues (hartree) for nkpt=   1  k points, SPIN UP:
 kpt#   1, nband=  5, wtk=  1.00000, kpt=  0.0000  0.0000  0.0000 (reduced coord)
  -0.36512  -0.22045  -0.09710  -0.04343  -0.04343
 Eigenvalues (hartree) for nkpt=   1  k points, SPIN DOWN:
 kpt#   1, nband=  3, wtk=  1.00000, kpt=  0.0000  0.0000  0.0000 (reduced coord)
  -0.32867  -0.19158  -0.08114
 Fermi (or HOMO) energy (eV) =  -1.18177   Average Vxc (eV)=  -6.07726
 Eigenvalues (   eV  ) for nkpt=   1  k points, SPIN UP:
 kpt#   1, nband=  5, wtk=  1.00000, kpt=  0.0000  0.0000  0.0000 (reduced coord)
  -9.93535  -5.99879  -2.64229  -1.18177  -1.18177
 Eigenvalues (   eV  ) for nkpt=   1  k points, SPIN DOWN:
 kpt#   1, nband=  3, wtk=  1.00000, kpt=  0.0000  0.0000  0.0000 (reduced coord)
  -8.94353  -5.21303  -2.20798

 ETOT  5  -8.6726918723861    -1.685E-07 3.855E-09 7.951E-06

 prteigrs : about to open file t21o_TIMC_EIG
 Fermi (or HOMO) energy (hartree) =  -0.04342   Average Vxc (hartree)=  -0.22334
 Eigenvalues (hartree) for nkpt=   1  k points, SPIN UP:
 kpt#   1, nband=  5, wtk=  1.00000, kpt=  0.0000  0.0000  0.0000 (reduced coord)
  -0.36508  -0.22043  -0.09710  -0.04342  -0.04342
 Eigenvalues (hartree) for nkpt=   1  k points, SPIN DOWN:
 kpt#   1, nband=  3, wtk=  1.00000, kpt=  0.0000  0.0000  0.0000 (reduced coord)
  -0.32868  -0.19152  -0.08115
 Fermi (or HOMO) energy (eV) =  -1.18145   Average Vxc (eV)=  -6.07735
 Eigenvalues (   eV  ) for nkpt=   1  k points, SPIN UP:
 kpt#   1, nband=  5, wtk=  1.00000, kpt=  0.0000  0.0000  0.0000 (reduced coord)
  -9.93446  -5.99830  -2.64227  -1.18145  -1.18145
 Eigenvalues (   eV  ) for nkpt=   1  k points, SPIN DOWN:
 kpt#   1, nband=  3, wtk=  1.00000, kpt=  0.0000  0.0000  0.0000 (reduced coord)
  -8.94387  -5.21157  -2.20811

 ETOT  6  -8.6726918767163    -4.330E-09 1.905E-10 1.078E-06

 prteigrs : about to open file t21o_TIMC_EIG
 Fermi (or HOMO) energy (hartree) =  -0.04342   Average Vxc (hartree)=  -0.22334
 Eigenvalues (hartree) for nkpt=   1  k points, SPIN UP:
 kpt#   1, nband=  5, wtk=  1.00000, kpt=  0.0000  0.0000  0.0000 (reduced coord)
  -0.36509  -0.22044  -0.09711  -0.04342  -0.04342
 Eigenvalues (hartree) for nkpt=   1  k points, SPIN DOWN:
 kpt#   1, nband=  3, wtk=  1.00000, kpt=  0.0000  0.0000  0.0000 (reduced coord)
  -0.32869  -0.19152  -0.08115
 Fermi (or HOMO) energy (eV) =  -1.18155   Average Vxc (eV)=  -6.07733
 Eigenvalues (   eV  ) for nkpt=   1  k points, SPIN UP:
 kpt#   1, nband=  5, wtk=  1.00000, kpt=  0.0000  0.0000  0.0000 (reduced coord)
  -9.93451  -5.99843  -2.64243  -1.18155  -1.18155
 Eigenvalues (   eV  ) for nkpt=   1  k points, SPIN DOWN:
 kpt#   1, nband=  3, wtk=  1.00000, kpt=  0.0000  0.0000  0.0000 (reduced coord)
  -8.94417  -5.21151  -2.20829

 ETOT  7  -8.6726918772628    -5.465E-10 2.739E-11 3.141E-07

 prteigrs : about to open file t21o_TIMC_EIG
 Fermi (or HOMO) energy (hartree) =  -0.04342   Average Vxc (hartree)=  -0.22334
 Eigenvalues (hartree) for nkpt=   1  k points, SPIN UP:
 kpt#   1, nband=  5, wtk=  1.00000, kpt=  0.0000  0.0000  0.0000 (reduced coord)
  -0.36509  -0.22044  -0.09711  -0.04342  -0.04342
 Eigenvalues (hartree) for nkpt=   1  k points, SPIN DOWN:
 kpt#   1, nband=  3, wtk=  1.00000, kpt=  0.0000  0.0000  0.0000 (reduced coord)
  -0.32870  -0.19152  -0.08115
 Fermi (or HOMO) energy (eV) =  -1.18157   Average Vxc (eV)=  -6.07732
 Eigenvalues (   eV  ) for nkpt=   1  k points, SPIN UP:
 kpt#   1, nband=  5, wtk=  1.00000, kpt=  0.0000  0.0000  0.0000 (reduced coord)
  -9.93452  -5.99849  -2.64247  -1.18157  -1.18157
 Eigenvalues (   eV  ) for nkpt=   1  k points, SPIN DOWN:
 kpt#   1, nband=  3, wtk=  1.00000, kpt=  0.0000  0.0000  0.0000 (reduced coord)
  -8.94430  -5.21150  -2.20834

 ETOT  8  -8.6726918774644    -2.016E-10 7.501E-12 1.012E-07

 prteigrs : about to open file t21o_TIMC_EIG
 Fermi (or HOMO) energy (hartree) =  -0.04342   Average Vxc (hartree)=  -0.22334
 Eigenvalues (hartree) for nkpt=   1  k points, SPIN UP:
 kpt#   1, nband=  5, wtk=  1.00000, kpt=  0.0000  0.0000  0.0000 (reduced coord)
  -0.36509  -0.22044  -0.09711  -0.04342  -0.04342
 Eigenvalues (hartree) for nkpt=   1  k points, SPIN DOWN:
 kpt#   1, nband=  3, wtk=  1.00000, kpt=  0.0000  0.0000  0.0000 (reduced coord)
  -0.32870  -0.19152  -0.08116
 Fermi (or HOMO) energy (eV) =  -1.18157   Average Vxc (eV)=  -6.07732
 Eigenvalues (   eV  ) for nkpt=   1  k points, SPIN UP:
 kpt#   1, nband=  5, wtk=  1.00000, kpt=  0.0000  0.0000  0.0000 (reduced coord)
  -9.93451  -5.99853  -2.64248  -1.18157  -1.18157
 Eigenvalues (   eV  ) for nkpt=   1  k points, SPIN DOWN:
 kpt#   1, nband=  3, wtk=  1.00000, kpt=  0.0000  0.0000  0.0000 (reduced coord)
  -8.94436  -5.21149  -2.20836

 ETOT  9  -8.6726918775376    -7.316E-11 3.035E-12 2.166E-08

 prteigrs : about to open file t21o_TIMC_EIG
 Fermi (or HOMO) energy (hartree) =  -0.04342   Average Vxc (hartree)=  -0.22334
 Eigenvalues (hartree) for nkpt=   1  k points, SPIN UP:
 kpt#   1, nband=  5, wtk=  1.00000, kpt=  0.0000  0.0000  0.0000 (reduced coord)
  -0.36509  -0.22044  -0.09711  -0.04342  -0.04342
 Eigenvalues (hartree) for nkpt=   1  k points, SPIN DOWN:
 kpt#   1, nband=  3, wtk=  1.00000, kpt=  0.0000  0.0000  0.0000 (reduced coord)
  -0.32870  -0.19152  -0.08116
 Fermi (or HOMO) energy (eV) =  -1.18157   Average Vxc (eV)=  -6.07731
 Eigenvalues (   eV  ) for nkpt=   1  k points, SPIN UP:
 kpt#   1, nband=  5, wtk=  1.00000, kpt=  0.0000  0.0000  0.0000 (reduced coord)
  -9.93450  -5.99855  -2.64248  -1.18157  -1.18157
 Eigenvalues (   eV  ) for nkpt=   1  k points, SPIN DOWN:
 kpt#   1, nband=  3, wtk=  1.00000, kpt=  0.0000  0.0000  0.0000 (reduced coord)
  -8.94441  -5.21148  -2.20837

 ETOT 10  -8.6726918775501    -1.249E-11 4.260E-13 5.374E-09

 prteigrs : about to open file t21o_TIMC_EIG
 Fermi (or HOMO) energy (hartree) =  -0.04342   Average Vxc (hartree)=  -0.22334
 Eigenvalues (hartree) for nkpt=   1  k points, SPIN UP:
 kpt#   1, nband=  5, wtk=  1.00000, kpt=  0.0000  0.0000  0.0000 (reduced coord)
  -0.36509  -0.22044  -0.09711  -0.04342  -0.04342
 Eigenvalues (hartree) for nkpt=   1  k points, SPIN DOWN:
 kpt#   1, nband=  3, wtk=  1.00000, kpt=  0.0000  0.0000  0.0000 (reduced coord)
  -0.32870  -0.19152  -0.08116
 Fermi (or HOMO) energy (eV) =  -1.18156   Average Vxc (eV)=  -6.07731
 Eigenvalues (   eV  ) for nkpt=   1  k points, SPIN UP:
 kpt#   1, nband=  5, wtk=  1.00000, kpt=  0.0000  0.0000  0.0000 (reduced coord)
  -9.93449  -5.99856  -2.64248  -1.18156  -1.18156
 Eigenvalues (   eV  ) for nkpt=   1  k points, SPIN DOWN:
 kpt#   1, nband=  3, wtk=  1.00000, kpt=  0.0000  0.0000  0.0000 (reduced coord)
  -8.94442  -5.21148  -2.20837

 ETOT 11  -8.6726918775516    -1.535E-12 9.583E-14 1.685E-09

 prteigrs : about to open file t21o_TIMC_EIG
 Fermi (or HOMO) energy (hartree) =  -0.04342   Average Vxc (hartree)=  -0.22334
 Eigenvalues (hartree) for nkpt=   1  k points, SPIN UP:
 kpt#   1, nband=  5, wtk=  1.00000, kpt=  0.0000  0.0000  0.0000 (reduced coord)
  -0.36509  -0.22044  -0.09711  -0.04342  -0.04342
 Eigenvalues (hartree) for nkpt=   1  k points, SPIN DOWN:
 kpt#   1, nband=  3, wtk=  1.00000, kpt=  0.0000  0.0000  0.0000 (reduced coord)
  -0.32870  -0.19152  -0.08116
 Fermi (or HOMO) energy (eV) =  -1.18156   Average Vxc (eV)=  -6.07732
 Eigenvalues (   eV  ) for nkpt=   1  k points, SPIN UP:
 kpt#   1, nband=  5, wtk=  1.00000, kpt=  0.0000  0.0000  0.0000 (reduced coord)
  -9.93448  -5.99856  -2.64248  -1.18156  -1.18156
 Eigenvalues (   eV  ) for nkpt=   1  k points, SPIN DOWN:
 kpt#   1, nband=  3, wtk=  1.00000, kpt=  0.0000  0.0000  0.0000 (reduced coord)
  -8.94442  -5.21148  -2.20836

 At SCF step   11   max residual=  9.58E-14 < tolwfr=  1.00E-13 =>converged.

 Cartesian components of stress tensor (hartree/bohr^3)
  sigma(1 1)=  1.90303079E-04  sigma(3 2)=  0.00000000E+00
  sigma(2 2)=  1.10650719E-04  sigma(3 1)=  0.00000000E+00
  sigma(3 3)=  1.10650719E-04  sigma(2 1)=  0.00000000E+00


---OUTPUT-----------------------------------------------------------------------

 Cartesian coordinates (xcart) [bohr]
 -2.16161560858513E+00 -1.16827816449205E-16  7.20794535470464E-17
  2.16161560858513E+00  1.16827816449205E-16 -7.20794535470464E-17
 Reduced coordinates (xred)
 -1.80134634048761E-01 -1.46034770561506E-17  9.00993169338080E-18
  1.80134634048761E-01  1.46034770561506E-17 -9.00993169338080E-18
 Cartesian forces (fcart) [Ha/bohr]; max,rms= 9.27731E-03 5.35626E-03 (free atoms)
 -9.27731122112233E-03  1.08633989271849E-16  7.68021891745460E-17
  9.27731122112233E-03 -1.08633989271849E-16 -7.68021891745460E-17
 Reduced forces (fred)
  1.11327734653467E-01  5.17066385314247E-16  2.07999448767302E-16
 -1.11327734653469E-01  2.25521021366383E-15  1.43683447556004E-15
 Cartesian velocities (vel) [bohr*Ha/hbar]; max,rms= 1.15467E-04 6.66651E-05 (free atoms)
  1.15467386128374E-04  3.99166436199930E-19 -5.05274498996719E-20
 -1.15467386128374E-04 -3.99166436199931E-19  5.05274498996719E-20
 Kinetic energy of ions (ekin) [Ha]=  6.80513589167099E-04
 Total energy (etotal) [Ha]= -8.67269187755160E+00

 Difference of energy with previous step (new-old):
           Absolute (Ha)=-1.06027E-03
           Relative     =-1.22261E-04

--- Iteration: ( 1/10) Internal Cycle: (4/4)
--------------------------------------------------------------------------------

---SELF-CONSISTENT-FIELD CONVERGENCE--------------------------------------------

     iter   Etot(hartree)      deltaE(h)  residm     vres2

 ETOT  1  -8.6466994920347    -8.647E+00 3.137E-06 6.201E+01

 prteigrs : about to open file t21o_TIM1_EIG
 Fermi (or HOMO) energy (hartree) =  -0.08210   Average Vxc (hartree)=  -0.21985
 Eigenvalues (hartree) for nkpt=   1  k points, SPIN UP:
 kpt#   1, nband=  5, wtk=  1.00000, kpt=  0.0000  0.0000  0.0000 (reduced coord)
  -0.41865  -0.22248  -0.09957  -0.08210  -0.08210
 Eigenvalues (hartree) for nkpt=   1  k points, SPIN DOWN:
 kpt#   1, nband=  3, wtk=  1.00000, kpt=  0.0000  0.0000  0.0000 (reduced coord)
  -0.38111  -0.19154  -0.08295
 Fermi (or HOMO) energy (eV) =  -2.23399   Average Vxc (eV)=  -5.98239
 Eigenvalues (   eV  ) for nkpt=   1  k points, SPIN UP:
 kpt#   1, nband=  5, wtk=  1.00000, kpt=  0.0000  0.0000  0.0000 (reduced coord)
 -11.39192  -6.05405  -2.70947  -2.23399  -2.23399
 Eigenvalues (   eV  ) for nkpt=   1  k points, SPIN DOWN:
 kpt#   1, nband=  3, wtk=  1.00000, kpt=  0.0000  0.0000  0.0000 (reduced coord)
 -10.37047  -5.21213  -2.25717

 ETOT  2  -8.6658891032817    -1.919E-02 5.821E-07 4.510E+00

 prteigrs : about to open file t21o_TIM1_EIG
 Fermi (or HOMO) energy (hartree) =  -0.05911   Average Vxc (hartree)=  -0.22156
 Eigenvalues (hartree) for nkpt=   1  k points, SPIN UP:
 kpt#   1, nband=  5, wtk=  1.00000, kpt=  0.0000  0.0000  0.0000 (reduced coord)
  -0.38694  -0.21410  -0.09360  -0.05911  -0.05911
 Eigenvalues (hartree) for nkpt=   1  k points, SPIN DOWN:
 kpt#   1, nband=  3, wtk=  1.00000, kpt=  0.0000  0.0000  0.0000 (reduced coord)
  -0.34953  -0.18597  -0.07852
 Fermi (or HOMO) energy (eV) =  -1.60844   Average Vxc (eV)=  -6.02897
 Eigenvalues (   eV  ) for nkpt=   1  k points, SPIN UP:
 kpt#   1, nband=  5, wtk=  1.00000, kpt=  0.0000  0.0000  0.0000 (reduced coord)
 -10.52913  -5.82592  -2.54692  -1.60844  -1.60844
 Eigenvalues (   eV  ) for nkpt=   1  k points, SPIN DOWN:
 kpt#   1, nband=  3, wtk=  1.00000, kpt=  0.0000  0.0000  0.0000 (reduced coord)
  -9.51117  -5.06051  -2.13664

 ETOT  3  -8.6672521577880    -1.363E-03 5.787E-05 1.064E-02

 prteigrs : about to open file t21o_TIM1_EIG
 Fermi (or HOMO) energy (hartree) =  -0.05466   Average Vxc (hartree)=  -0.22216
 Eigenvalues (hartree) for nkpt=   1  k points, SPIN UP:
 kpt#   1, nband=  5, wtk=  1.00000, kpt=  0.0000  0.0000  0.0000 (reduced coord)
  -0.37984  -0.21476  -0.09505  -0.05466  -0.05466
 Eigenvalues (hartree) for nkpt=   1  k points, SPIN DOWN:
 kpt#   1, nband=  3, wtk=  1.00000, kpt=  0.0000  0.0000  0.0000 (reduced coord)
  -0.34167  -0.18694  -0.07959
 Fermi (or HOMO) energy (eV) =  -1.48736   Average Vxc (eV)=  -6.04531
 Eigenvalues (   eV  ) for nkpt=   1  k points, SPIN UP:
 kpt#   1, nband=  5, wtk=  1.00000, kpt=  0.0000  0.0000  0.0000 (reduced coord)
 -10.33609  -5.84386  -2.58639  -1.48736  -1.48736
 Eigenvalues (   eV  ) for nkpt=   1  k points, SPIN DOWN:
 kpt#   1, nband=  3, wtk=  1.00000, kpt=  0.0000  0.0000  0.0000 (reduced coord)
  -9.29742  -5.08691  -2.16585

 ETOT  4  -8.6672568417808    -4.684E-06 4.693E-08 4.244E-03

 prteigrs : about to open file t21o_TIM1_EIG
 Fermi (or HOMO) energy (hartree) =  -0.05542   Average Vxc (hartree)=  -0.22215
 Eigenvalues (hartree) for nkpt=   1  k points, SPIN UP:
 kpt#   1, nband=  5, wtk=  1.00000, kpt=  0.0000  0.0000  0.0000 (reduced coord)
  -0.38072  -0.21548  -0.09582  -0.05542  -0.05542
 Eigenvalues (hartree) for nkpt=   1  k points, SPIN DOWN:
 kpt#   1, nband=  3, wtk=  1.00000, kpt=  0.0000  0.0000  0.0000 (reduced coord)
  -0.34229  -0.18758  -0.08024
 Fermi (or HOMO) energy (eV) =  -1.50813   Average Vxc (eV)=  -6.04504
 Eigenvalues (   eV  ) for nkpt=   1  k points, SPIN UP:
 kpt#   1, nband=  5, wtk=  1.00000, kpt=  0.0000  0.0000  0.0000 (reduced coord)
 -10.36002  -5.86354  -2.60727  -1.50813  -1.50813
 Eigenvalues (   eV  ) for nkpt=   1  k points, SPIN DOWN:
 kpt#   1, nband=  3, wtk=  1.00000, kpt=  0.0000  0.0000  0.0000 (reduced coord)
  -9.31431  -5.10426  -2.18336

 ETOT  5  -8.6672583901976    -1.548E-06 4.131E-08 1.837E-04

 prteigrs : about to open file t21o_TIM1_EIG
 Fermi (or HOMO) energy (hartree) =  -0.05549   Average Vxc (hartree)=  -0.22214
 Eigenvalues (hartree) for nkpt=   1  k points, SPIN UP:
 kpt#   1, nband=  5, wtk=  1.00000, kpt=  0.0000  0.0000  0.0000 (reduced coord)
  -0.38094  -0.21549  -0.09590  -0.05549  -0.05549
 Eigenvalues (hartree) for nkpt=   1  k points, SPIN DOWN:
 kpt#   1, nband=  3, wtk=  1.00000, kpt=  0.0000  0.0000  0.0000 (reduced coord)
  -0.34232  -0.18770  -0.08036
 Fermi (or HOMO) energy (eV) =  -1.51000   Average Vxc (eV)=  -6.04468
 Eigenvalues (   eV  ) for nkpt=   1  k points, SPIN UP:
 kpt#   1, nband=  5, wtk=  1.00000, kpt=  0.0000  0.0000  0.0000 (reduced coord)
 -10.36601  -5.86386  -2.60961  -1.51000  -1.51000
 Eigenvalues (   eV  ) for nkpt=   1  k points, SPIN DOWN:
 kpt#   1, nband=  3, wtk=  1.00000, kpt=  0.0000  0.0000  0.0000 (reduced coord)
  -9.31510  -5.10769  -2.18683

 ETOT  6  -8.6672584443656    -5.417E-08 2.760E-09 2.030E-05

 prteigrs : about to open file t21o_TIM1_EIG
 Fermi (or HOMO) energy (hartree) =  -0.05546   Average Vxc (hartree)=  -0.22214
 Eigenvalues (hartree) for nkpt=   1  k points, SPIN UP:
 kpt#   1, nband=  5, wtk=  1.00000, kpt=  0.0000  0.0000  0.0000 (reduced coord)
  -0.38090  -0.21547  -0.09588  -0.05546  -0.05546
 Eigenvalues (hartree) for nkpt=   1  k points, SPIN DOWN:
 kpt#   1, nband=  3, wtk=  1.00000, kpt=  0.0000  0.0000  0.0000 (reduced coord)
  -0.34225  -0.18770  -0.08034
 Fermi (or HOMO) energy (eV) =  -1.50910   Average Vxc (eV)=  -6.04479
 Eigenvalues (   eV  ) for nkpt=   1  k points, SPIN UP:
 kpt#   1, nband=  5, wtk=  1.00000, kpt=  0.0000  0.0000  0.0000 (reduced coord)
 -10.36490  -5.86313  -2.60890  -1.50910  -1.50910
 Eigenvalues (   eV  ) for nkpt=   1  k points, SPIN DOWN:
 kpt#   1, nband=  3, wtk=  1.00000, kpt=  0.0000  0.0000  0.0000 (reduced coord)
  -9.31319  -5.10746  -2.18629

 ETOT  7  -8.6672584558717    -1.151E-08 8.024E-10 3.827E-06

 prteigrs : about to open file t21o_TIM1_EIG
 Fermi (or HOMO) energy (hartree) =  -0.05546   Average Vxc (hartree)=  -0.22214
 Eigenvalues (hartree) for nkpt=   1  k points, SPIN UP:
 kpt#   1, nband=  5, wtk=  1.00000, kpt=  0.0000  0.0000  0.0000 (reduced coord)
  -0.38089  -0.21546  -0.09587  -0.05546  -0.05546
 Eigenvalues (hartree) for nkpt=   1  k points, SPIN DOWN:
 kpt#   1, nband=  3, wtk=  1.00000, kpt=  0.0000  0.0000  0.0000 (reduced coord)
  -0.34223  -0.18770  -0.08034
 Fermi (or HOMO) energy (eV) =  -1.50904   Average Vxc (eV)=  -6.04484
 Eigenvalues (   eV  ) for nkpt=   1  k points, SPIN UP:
 kpt#   1, nband=  5, wtk=  1.00000, kpt=  0.0000  0.0000  0.0000 (reduced coord)
 -10.36466  -5.86304  -2.60871  -1.50904  -1.50904
 Eigenvalues (   eV  ) for nkpt=   1  k points, SPIN DOWN:
 kpt#   1, nband=  3, wtk=  1.00000, kpt=  0.0000  0.0000  0.0000 (reduced coord)
  -9.31247  -5.10762  -2.18618

 ETOT  8  -8.6672584577059    -1.834E-09 4.695E-11 1.495E-06

 prteigrs : about to open file t21o_TIM1_EIG
 Fermi (or HOMO) energy (hartree) =  -0.05546   Average Vxc (hartree)=  -0.22214
 Eigenvalues (hartree) for nkpt=   1  k points, SPIN UP:
 kpt#   1, nband=  5, wtk=  1.00000, kpt=  0.0000  0.0000  0.0000 (reduced coord)
  -0.38090  -0.21546  -0.09587  -0.05546  -0.05546
 Eigenvalues (hartree) for nkpt=   1  k points, SPIN DOWN:
 kpt#   1, nband=  3, wtk=  1.00000, kpt=  0.0000  0.0000  0.0000 (reduced coord)
  -0.34222  -0.18770  -0.08034
 Fermi (or HOMO) energy (eV) =  -1.50914   Average Vxc (eV)=  -6.04485
 Eigenvalues (   eV  ) for nkpt=   1  k points, SPIN UP:
 kpt#   1, nband=  5, wtk=  1.00000, kpt=  0.0000  0.0000  0.0000 (reduced coord)
 -10.36471  -5.86304  -2.60866  -1.50914  -1.50914
 Eigenvalues (   eV  ) for nkpt=   1  k points, SPIN DOWN:
 kpt#   1, nband=  3, wtk=  1.00000, kpt=  0.0000  0.0000  0.0000 (reduced coord)
  -9.31236  -5.10770  -2.18615

 ETOT  9  -8.6672584589497    -1.244E-09 8.705E-11 6.531E-08

 prteigrs : about to open file t21o_TIM1_EIG
 Fermi (or HOMO) energy (hartree) =  -0.05546   Average Vxc (hartree)=  -0.22214
 Eigenvalues (hartree) for nkpt=   1  k points, SPIN UP:
 kpt#   1, nband=  5, wtk=  1.00000, kpt=  0.0000  0.0000  0.0000 (reduced coord)
  -0.38090  -0.21546  -0.09586  -0.05546  -0.05546
 Eigenvalues (hartree) for nkpt=   1  k points, SPIN DOWN:
 kpt#   1, nband=  3, wtk=  1.00000, kpt=  0.0000  0.0000  0.0000 (reduced coord)
  -0.34222  -0.18771  -0.08034
 Fermi (or HOMO) energy (eV) =  -1.50924   Average Vxc (eV)=  -6.04485
 Eigenvalues (   eV  ) for nkpt=   1  k points, SPIN UP:
 kpt#   1, nband=  5, wtk=  1.00000, kpt=  0.0000  0.0000  0.0000 (reduced coord)
 -10.36477  -5.86298  -2.60851  -1.50924  -1.50924
 Eigenvalues (   eV  ) for nkpt=   1  k points, SPIN DOWN:
 kpt#   1, nband=  3, wtk=  1.00000, kpt=  0.0000  0.0000  0.0000 (reduced coord)
  -9.31215  -5.10779  -2.18608

 ETOT 10  -8.6672584590046    -5.490E-11 6.287E-13 2.960E-08

 prteigrs : about to open file t21o_TIM1_EIG
 Fermi (or HOMO) energy (hartree) =  -0.05546   Average Vxc (hartree)=  -0.22214
 Eigenvalues (hartree) for nkpt=   1  k points, SPIN UP:
 kpt#   1, nband=  5, wtk=  1.00000, kpt=  0.0000  0.0000  0.0000 (reduced coord)
  -0.38090  -0.21546  -0.09586  -0.05546  -0.05546
 Eigenvalues (hartree) for nkpt=   1  k points, SPIN DOWN:
 kpt#   1, nband=  3, wtk=  1.00000, kpt=  0.0000  0.0000  0.0000 (reduced coord)
  -0.34222  -0.18771  -0.08034
 Fermi (or HOMO) energy (eV) =  -1.50926   Average Vxc (eV)=  -6.04485
 Eigenvalues (   eV  ) for nkpt=   1  k points, SPIN UP:
 kpt#   1, nband=  5, wtk=  1.00000, kpt=  0.0000  0.0000  0.0000 (reduced coord)
 -10.36480  -5.86299  -2.60852  -1.50926  -1.50926
 Eigenvalues (   eV  ) for nkpt=   1  k points, SPIN DOWN:
 kpt#   1, nband=  3, wtk=  1.00000, kpt=  0.0000  0.0000  0.0000 (reduced coord)
  -9.31215  -5.10781  -2.18610

 ETOT 11  -8.6672584590393    -3.471E-11 1.655E-12 2.927E-09

 prteigrs : about to open file t21o_TIM1_EIG
 Fermi (or HOMO) energy (hartree) =  -0.05546   Average Vxc (hartree)=  -0.22214
 Eigenvalues (hartree) for nkpt=   1  k points, SPIN UP:
 kpt#   1, nband=  5, wtk=  1.00000, kpt=  0.0000  0.0000  0.0000 (reduced coord)
  -0.38090  -0.21546  -0.09586  -0.05546  -0.05546
 Eigenvalues (hartree) for nkpt=   1  k points, SPIN DOWN:
 kpt#   1, nband=  3, wtk=  1.00000, kpt=  0.0000  0.0000  0.0000 (reduced coord)
  -0.34221  -0.18771  -0.08034
 Fermi (or HOMO) energy (eV) =  -1.50926   Average Vxc (eV)=  -6.04485
 Eigenvalues (   eV  ) for nkpt=   1  k points, SPIN UP:
 kpt#   1, nband=  5, wtk=  1.00000, kpt=  0.0000  0.0000  0.0000 (reduced coord)
 -10.36482  -5.86297  -2.60852  -1.50926  -1.50926
 Eigenvalues (   eV  ) for nkpt=   1  k points, SPIN DOWN:
 kpt#   1, nband=  3, wtk=  1.00000, kpt=  0.0000  0.0000  0.0000 (reduced coord)
  -9.31214  -5.10783  -2.18612

 ETOT 12  -8.6672584590421    -2.736E-12 1.384E-13 4.329E-10

 prteigrs : about to open file t21o_TIM1_EIG
 Fermi (or HOMO) energy (hartree) =  -0.05546   Average Vxc (hartree)=  -0.22214
 Eigenvalues (hartree) for nkpt=   1  k points, SPIN UP:
 kpt#   1, nband=  5, wtk=  1.00000, kpt=  0.0000  0.0000  0.0000 (reduced coord)
  -0.38090  -0.21546  -0.09586  -0.05546  -0.05546
 Eigenvalues (hartree) for nkpt=   1  k points, SPIN DOWN:
 kpt#   1, nband=  3, wtk=  1.00000, kpt=  0.0000  0.0000  0.0000 (reduced coord)
  -0.34221  -0.18771  -0.08034
 Fermi (or HOMO) energy (eV) =  -1.50926   Average Vxc (eV)=  -6.04485
 Eigenvalues (   eV  ) for nkpt=   1  k points, SPIN UP:
 kpt#   1, nband=  5, wtk=  1.00000, kpt=  0.0000  0.0000  0.0000 (reduced coord)
 -10.36482  -5.86297  -2.60852  -1.50926  -1.50926
 Eigenvalues (   eV  ) for nkpt=   1  k points, SPIN DOWN:
 kpt#   1, nband=  3, wtk=  1.00000, kpt=  0.0000  0.0000  0.0000 (reduced coord)
  -9.31213  -5.10784  -2.18612

 ETOT 13  -8.6672584590421    -1.776E-15 8.935E-14 1.636E-10

 prteigrs : about to open file t21o_TIM1_EIG
 Fermi (or HOMO) energy (hartree) =  -0.05546   Average Vxc (hartree)=  -0.22214
 Eigenvalues (hartree) for nkpt=   1  k points, SPIN UP:
 kpt#   1, nband=  5, wtk=  1.00000, kpt=  0.0000  0.0000  0.0000 (reduced coord)
  -0.38090  -0.21546  -0.09586  -0.05546  -0.05546
 Eigenvalues (hartree) for nkpt=   1  k points, SPIN DOWN:
 kpt#   1, nband=  3, wtk=  1.00000, kpt=  0.0000  0.0000  0.0000 (reduced coord)
  -0.34221  -0.18771  -0.08034
 Fermi (or HOMO) energy (eV) =  -1.50926   Average Vxc (eV)=  -6.04485
 Eigenvalues (   eV  ) for nkpt=   1  k points, SPIN UP:
 kpt#   1, nband=  5, wtk=  1.00000, kpt=  0.0000  0.0000  0.0000 (reduced coord)
 -10.36482  -5.86297  -2.60852  -1.50926  -1.50926
 Eigenvalues (   eV  ) for nkpt=   1  k points, SPIN DOWN:
 kpt#   1, nband=  3, wtk=  1.00000, kpt=  0.0000  0.0000  0.0000 (reduced coord)
  -9.31213  -5.10783  -2.18612

 At SCF step   13   max residual=  8.94E-14 < tolwfr=  1.00E-13 =>converged.

 Cartesian components of stress tensor (hartree/bohr^3)
  sigma(1 1)=  9.82251910E-06  sigma(3 2)=  0.00000000E+00
  sigma(2 2)=  1.10203313E-04  sigma(3 1)=  0.00000000E+00
  sigma(3 3)=  1.10203313E-04  sigma(2 1)=  0.00000000E+00


---OUTPUT-----------------------------------------------------------------------

 Cartesian coordinates (xcart) [bohr]
 -2.04405951436335E+00  2.69437344434953E-16 -3.41060286822785E-17
  2.04405951436335E+00 -2.69437344434953E-16  3.41060286822785E-17
 Reduced coordinates (xred)
 -1.70338292863612E-01  3.36796680543691E-17 -4.26325358528481E-18
  1.70338292863612E-01 -3.36796680543692E-17  4.26325358528481E-18
 Cartesian forces (fcart) [Ha/bohr]; max,rms= 3.96022E-02 2.28643E-02 (free atoms)
 -3.96021884178579E-02 -5.28915065703063E-17 -1.50490396713447E-16
  3.96021884178579E-02  5.28915065703063E-17  1.50490396713447E-16
 Reduced forces (fred)
  4.75226261014301E-01  1.81532608033818E-15  7.70736902029904E-16
 -4.75226261014288E-01  9.69061975213281E-16 -1.63710944538524E-15
 Cartesian velocities (vel) [bohr*Ha/hbar]; max,rms= 5.80796E-04 3.35323E-04 (free atoms)
 -5.80795867601411E-04 -1.47004928809355E-19  1.21614849245595E-18
  5.80795867601411E-04  1.47004928809357E-19 -1.21614849245595E-18
 Kinetic energy of ions (ekin) [Ha]=  1.72173048062685E-02
 Total energy (etotal) [Ha]= -8.66725845904206E+00

 Difference of energy with previous step (new-old):
           Absolute (Ha)= 5.43342E-03
           Relative     = 6.26694E-04

--- Iteration: ( 2/10) Internal Cycle: (1/1)
--------------------------------------------------------------------------------

---SELF-CONSISTENT-FIELD CONVERGENCE--------------------------------------------

     iter   Etot(hartree)      deltaE(h)  residm     vres2

 ETOT  1  -8.6405586382117    -8.641E+00 1.622E-05 1.005E+02

 prteigrs : about to open file t21o_TIM2_EIG
 Fermi (or HOMO) energy (hartree) =  -0.01640   Average Vxc (hartree)=  -0.22621
 Eigenvalues (hartree) for nkpt=   1  k points, SPIN UP:
 kpt#   1, nband=  5, wtk=  1.00000, kpt=  0.0000  0.0000  0.0000 (reduced coord)
  -0.32787  -0.21671  -0.09300  -0.01640  -0.01640
 Eigenvalues (hartree) for nkpt=   1  k points, SPIN DOWN:
 kpt#   1, nband=  3, wtk=  1.00000, kpt=  0.0000  0.0000  0.0000 (reduced coord)
  -0.29371  -0.19171  -0.07559
 Fermi (or HOMO) energy (eV) =  -0.44636   Average Vxc (eV)=  -6.15538
 Eigenvalues (   eV  ) for nkpt=   1  k points, SPIN UP:
 kpt#   1, nband=  5, wtk=  1.00000, kpt=  0.0000  0.0000  0.0000 (reduced coord)
  -8.92170  -5.89702  -2.53079  -0.44636  -0.44636
 Eigenvalues (   eV  ) for nkpt=   1  k points, SPIN DOWN:
 kpt#   1, nband=  3, wtk=  1.00000, kpt=  0.0000  0.0000  0.0000 (reduced coord)
  -7.99227  -5.21670  -2.05680

 ETOT  2  -8.6711803777329    -3.062E-02 1.895E-07 5.932E+00

 prteigrs : about to open file t21o_TIM2_EIG
 Fermi (or HOMO) energy (hartree) =  -0.03822   Average Vxc (hartree)=  -0.22418
 Eigenvalues (hartree) for nkpt=   1  k points, SPIN UP:
 kpt#   1, nband=  5, wtk=  1.00000, kpt=  0.0000  0.0000  0.0000 (reduced coord)
  -0.35647  -0.22379  -0.09981  -0.03822  -0.03822
 Eigenvalues (hartree) for nkpt=   1  k points, SPIN DOWN:
 kpt#   1, nband=  3, wtk=  1.00000, kpt=  0.0000  0.0000  0.0000 (reduced coord)
  -0.31971  -0.19520  -0.08278
 Fermi (or HOMO) energy (eV) =  -1.04006   Average Vxc (eV)=  -6.10022
 Eigenvalues (   eV  ) for nkpt=   1  k points, SPIN UP:
 kpt#   1, nband=  5, wtk=  1.00000, kpt=  0.0000  0.0000  0.0000 (reduced coord)
  -9.70002  -6.08953  -2.71605  -1.04006  -1.04006
 Eigenvalues (   eV  ) for nkpt=   1  k points, SPIN DOWN:
 kpt#   1, nband=  3, wtk=  1.00000, kpt=  0.0000  0.0000  0.0000 (reduced coord)
  -8.69966  -5.31157  -2.25250

 ETOT  3  -8.6730413547796    -1.861E-03 8.499E-05 1.287E-02

 prteigrs : about to open file t21o_TIM2_EIG
 Fermi (or HOMO) energy (hartree) =  -0.04177   Average Vxc (hartree)=  -0.22356
 Eigenvalues (hartree) for nkpt=   1  k points, SPIN UP:
 kpt#   1, nband=  5, wtk=  1.00000, kpt=  0.0000  0.0000  0.0000 (reduced coord)
  -0.36267  -0.22240  -0.09800  -0.04177  -0.04177
 Eigenvalues (hartree) for nkpt=   1  k points, SPIN DOWN:
 kpt#   1, nband=  3, wtk=  1.00000, kpt=  0.0000  0.0000  0.0000 (reduced coord)
  -0.32634  -0.19338  -0.08167
 Fermi (or HOMO) energy (eV) =  -1.13671   Average Vxc (eV)=  -6.08343
 Eigenvalues (   eV  ) for nkpt=   1  k points, SPIN UP:
 kpt#   1, nband=  5, wtk=  1.00000, kpt=  0.0000  0.0000  0.0000 (reduced coord)
  -9.86865  -6.05184  -2.66679  -1.13671  -1.13671
 Eigenvalues (   eV  ) for nkpt=   1  k points, SPIN DOWN:
 kpt#   1, nband=  3, wtk=  1.00000, kpt=  0.0000  0.0000  0.0000 (reduced coord)
  -8.88011  -5.26201  -2.22241

 ETOT  4  -8.6730473671208    -6.012E-06 8.091E-08 4.415E-03

 prteigrs : about to open file t21o_TIM2_EIG
 Fermi (or HOMO) energy (hartree) =  -0.04104   Average Vxc (hartree)=  -0.22358
 Eigenvalues (hartree) for nkpt=   1  k points, SPIN UP:
 kpt#   1, nband=  5, wtk=  1.00000, kpt=  0.0000  0.0000  0.0000 (reduced coord)
  -0.36191  -0.22158  -0.09730  -0.04104  -0.04104
 Eigenvalues (hartree) for nkpt=   1  k points, SPIN DOWN:
 kpt#   1, nband=  3, wtk=  1.00000, kpt=  0.0000  0.0000  0.0000 (reduced coord)
  -0.32580  -0.19260  -0.08115
 Fermi (or HOMO) energy (eV) =  -1.11667   Average Vxc (eV)=  -6.08406
 Eigenvalues (   eV  ) for nkpt=   1  k points, SPIN UP:
 kpt#   1, nband=  5, wtk=  1.00000, kpt=  0.0000  0.0000  0.0000 (reduced coord)
  -9.84800  -6.02960  -2.64762  -1.11667  -1.11667
 Eigenvalues (   eV  ) for nkpt=   1  k points, SPIN DOWN:
 kpt#   1, nband=  3, wtk=  1.00000, kpt=  0.0000  0.0000  0.0000 (reduced coord)
  -8.86550  -5.24090  -2.20815

 ETOT  5  -8.6730497737383    -2.407E-06 9.074E-08 1.093E-04

 prteigrs : about to open file t21o_TIM2_EIG
 Fermi (or HOMO) energy (hartree) =  -0.04101   Average Vxc (hartree)=  -0.22359
 Eigenvalues (hartree) for nkpt=   1  k points, SPIN UP:
 kpt#   1, nband=  5, wtk=  1.00000, kpt=  0.0000  0.0000  0.0000 (reduced coord)
  -0.36186  -0.22148  -0.09736  -0.04101  -0.04101
 Eigenvalues (hartree) for nkpt=   1  k points, SPIN DOWN:
 kpt#   1, nband=  3, wtk=  1.00000, kpt=  0.0000  0.0000  0.0000 (reduced coord)
  -0.32589  -0.19236  -0.08128
 Fermi (or HOMO) energy (eV) =  -1.11585   Average Vxc (eV)=  -6.08427
 Eigenvalues (   eV  ) for nkpt=   1  k points, SPIN UP:
 kpt#   1, nband=  5, wtk=  1.00000, kpt=  0.0000  0.0000  0.0000 (reduced coord)
  -9.84671  -6.02687  -2.64928  -1.11585  -1.11585
 Eigenvalues (   eV  ) for nkpt=   1  k points, SPIN DOWN:
 kpt#   1, nband=  3, wtk=  1.00000, kpt=  0.0000  0.0000  0.0000 (reduced coord)
  -8.86791  -5.23444  -2.21166

 ETOT  6  -8.6730498619510    -8.821E-08 1.270E-09 1.693E-05

 prteigrs : about to open file t21o_TIM2_EIG
 Fermi (or HOMO) energy (hartree) =  -0.04100   Average Vxc (hartree)=  -0.22359
 Eigenvalues (hartree) for nkpt=   1  k points, SPIN UP:
 kpt#   1, nband=  5, wtk=  1.00000, kpt=  0.0000  0.0000  0.0000 (reduced coord)
  -0.36185  -0.22149  -0.09738  -0.04100  -0.04100
 Eigenvalues (hartree) for nkpt=   1  k points, SPIN DOWN:
 kpt#   1, nband=  3, wtk=  1.00000, kpt=  0.0000  0.0000  0.0000 (reduced coord)
  -0.32590  -0.19234  -0.08131
 Fermi (or HOMO) energy (eV) =  -1.11579   Average Vxc (eV)=  -6.08428
 Eigenvalues (   eV  ) for nkpt=   1  k points, SPIN UP:
 kpt#   1, nband=  5, wtk=  1.00000, kpt=  0.0000  0.0000  0.0000 (reduced coord)
  -9.84632  -6.02710  -2.64981  -1.11579  -1.11579
 Eigenvalues (   eV  ) for nkpt=   1  k points, SPIN DOWN:
 kpt#   1, nband=  3, wtk=  1.00000, kpt=  0.0000  0.0000  0.0000 (reduced coord)
  -8.86826  -5.23395  -2.21252

 ETOT  7  -8.6730498721167    -1.017E-08 2.130E-10 4.605E-06

 prteigrs : about to open file t21o_TIM2_EIG
 Fermi (or HOMO) energy (hartree) =  -0.04101   Average Vxc (hartree)=  -0.22359
 Eigenvalues (hartree) for nkpt=   1  k points, SPIN UP:
 kpt#   1, nband=  5, wtk=  1.00000, kpt=  0.0000  0.0000  0.0000 (reduced coord)
  -0.36184  -0.22150  -0.09738  -0.04101  -0.04101
 Eigenvalues (hartree) for nkpt=   1  k points, SPIN DOWN:
 kpt#   1, nband=  3, wtk=  1.00000, kpt=  0.0000  0.0000  0.0000 (reduced coord)
  -0.32591  -0.19234  -0.08132
 Fermi (or HOMO) energy (eV) =  -1.11585   Average Vxc (eV)=  -6.08425
 Eigenvalues (   eV  ) for nkpt=   1  k points, SPIN UP:
 kpt#   1, nband=  5, wtk=  1.00000, kpt=  0.0000  0.0000  0.0000 (reduced coord)
  -9.84617  -6.02734  -2.64992  -1.11585  -1.11585
 Eigenvalues (   eV  ) for nkpt=   1  k points, SPIN DOWN:
 kpt#   1, nband=  3, wtk=  1.00000, kpt=  0.0000  0.0000  0.0000 (reduced coord)
  -8.86855  -5.23385  -2.21284

 ETOT  8  -8.6730498746884    -2.572E-09 9.745E-11 1.204E-06

 prteigrs : about to open file t21o_TIM2_EIG
 Fermi (or HOMO) energy (hartree) =  -0.04101   Average Vxc (hartree)=  -0.22359
 Eigenvalues (hartree) for nkpt=   1  k points, SPIN UP:
 kpt#   1, nband=  5, wtk=  1.00000, kpt=  0.0000  0.0000  0.0000 (reduced coord)
  -0.36184  -0.22151  -0.09738  -0.04101  -0.04101
 Eigenvalues (hartree) for nkpt=   1  k points, SPIN DOWN:
 kpt#   1, nband=  3, wtk=  1.00000, kpt=  0.0000  0.0000  0.0000 (reduced coord)
  -0.32592  -0.19234  -0.08132
 Fermi (or HOMO) energy (eV) =  -1.11592   Average Vxc (eV)=  -6.08422
 Eigenvalues (   eV  ) for nkpt=   1  k points, SPIN UP:
 kpt#   1, nband=  5, wtk=  1.00000, kpt=  0.0000  0.0000  0.0000 (reduced coord)
  -9.84613  -6.02752  -2.64991  -1.11592  -1.11592
 Eigenvalues (   eV  ) for nkpt=   1  k points, SPIN DOWN:
 kpt#   1, nband=  3, wtk=  1.00000, kpt=  0.0000  0.0000  0.0000 (reduced coord)
  -8.86878  -5.23383  -2.21296

 ETOT  9  -8.6730498754639    -7.755E-10 2.297E-11 3.869E-07

 prteigrs : about to open file t21o_TIM2_EIG
 Fermi (or HOMO) energy (hartree) =  -0.04101   Average Vxc (hartree)=  -0.22359
 Eigenvalues (hartree) for nkpt=   1  k points, SPIN UP:
 kpt#   1, nband=  5, wtk=  1.00000, kpt=  0.0000  0.0000  0.0000 (reduced coord)
  -0.36184  -0.22151  -0.09738  -0.04101  -0.04101
 Eigenvalues (hartree) for nkpt=   1  k points, SPIN DOWN:
 kpt#   1, nband=  3, wtk=  1.00000, kpt=  0.0000  0.0000  0.0000 (reduced coord)
  -0.32593  -0.19234  -0.08133
 Fermi (or HOMO) energy (eV) =  -1.11595   Average Vxc (eV)=  -6.08422
 Eigenvalues (   eV  ) for nkpt=   1  k points, SPIN UP:
 kpt#   1, nband=  5, wtk=  1.00000, kpt=  0.0000  0.0000  0.0000 (reduced coord)
  -9.84609  -6.02760  -2.64986  -1.11595  -1.11595
 Eigenvalues (   eV  ) for nkpt=   1  k points, SPIN DOWN:
 kpt#   1, nband=  3, wtk=  1.00000, kpt=  0.0000  0.0000  0.0000 (reduced coord)
  -8.86890  -5.23383  -2.21298

 ETOT 10  -8.6730498756931    -2.292E-10 4.989E-12 1.275E-07

 prteigrs : about to open file t21o_TIM2_EIG
 Fermi (or HOMO) energy (hartree) =  -0.04101   Average Vxc (hartree)=  -0.22359
 Eigenvalues (hartree) for nkpt=   1  k points, SPIN UP:
 kpt#   1, nband=  5, wtk=  1.00000, kpt=  0.0000  0.0000  0.0000 (reduced coord)
  -0.36184  -0.22151  -0.09738  -0.04101  -0.04101
 Eigenvalues (hartree) for nkpt=   1  k points, SPIN DOWN:
 kpt#   1, nband=  3, wtk=  1.00000, kpt=  0.0000  0.0000  0.0000 (reduced coord)
  -0.32593  -0.19234  -0.08133
 Fermi (or HOMO) energy (eV) =  -1.11596   Average Vxc (eV)=  -6.08422
 Eigenvalues (   eV  ) for nkpt=   1  k points, SPIN UP:
 kpt#   1, nband=  5, wtk=  1.00000, kpt=  0.0000  0.0000  0.0000 (reduced coord)
  -9.84606  -6.02764  -2.64983  -1.11596  -1.11596
 Eigenvalues (   eV  ) for nkpt=   1  k points, SPIN DOWN:
 kpt#   1, nband=  3, wtk=  1.00000, kpt=  0.0000  0.0000  0.0000 (reduced coord)
  -8.86894  -5.23383  -2.21298

 ETOT 11  -8.6730498757528    -5.974E-11 1.803E-12 3.228E-08

 prteigrs : about to open file t21o_TIM2_EIG
 Fermi (or HOMO) energy (hartree) =  -0.04101   Average Vxc (hartree)=  -0.22359
 Eigenvalues (hartree) for nkpt=   1  k points, SPIN UP:
 kpt#   1, nband=  5, wtk=  1.00000, kpt=  0.0000  0.0000  0.0000 (reduced coord)
  -0.36184  -0.22151  -0.09738  -0.04101  -0.04101
 Eigenvalues (hartree) for nkpt=   1  k points, SPIN DOWN:
 kpt#   1, nband=  3, wtk=  1.00000, kpt=  0.0000  0.0000  0.0000 (reduced coord)
  -0.32593  -0.19234  -0.08133
 Fermi (or HOMO) energy (eV) =  -1.11596   Average Vxc (eV)=  -6.08422
 Eigenvalues (   eV  ) for nkpt=   1  k points, SPIN UP:
 kpt#   1, nband=  5, wtk=  1.00000, kpt=  0.0000  0.0000  0.0000 (reduced coord)
  -9.84604  -6.02765  -2.64981  -1.11596  -1.11596
 Eigenvalues (   eV  ) for nkpt=   1  k points, SPIN DOWN:
 kpt#   1, nband=  3, wtk=  1.00000, kpt=  0.0000  0.0000  0.0000 (reduced coord)
  -8.86896  -5.23383  -2.21297

 ETOT 12  -8.6730498757592    -6.384E-12 6.908E-14 1.073E-08

 prteigrs : about to open file t21o_TIM2_EIG
 Fermi (or HOMO) energy (hartree) =  -0.04101   Average Vxc (hartree)=  -0.22359
 Eigenvalues (hartree) for nkpt=   1  k points, SPIN UP:
 kpt#   1, nband=  5, wtk=  1.00000, kpt=  0.0000  0.0000  0.0000 (reduced coord)
  -0.36184  -0.22151  -0.09738  -0.04101  -0.04101
 Eigenvalues (hartree) for nkpt=   1  k points, SPIN DOWN:
 kpt#   1, nband=  3, wtk=  1.00000, kpt=  0.0000  0.0000  0.0000 (reduced coord)
  -0.32593  -0.19234  -0.08133
 Fermi (or HOMO) energy (eV) =  -1.11596   Average Vxc (eV)=  -6.08422
 Eigenvalues (   eV  ) for nkpt=   1  k points, SPIN UP:
 kpt#   1, nband=  5, wtk=  1.00000, kpt=  0.0000  0.0000  0.0000 (reduced coord)
  -9.84604  -6.02765  -2.64981  -1.11596  -1.11596
 Eigenvalues (   eV  ) for nkpt=   1  k points, SPIN DOWN:
 kpt#   1, nband=  3, wtk=  1.00000, kpt=  0.0000  0.0000  0.0000 (reduced coord)
  -8.86896  -5.23383  -2.21297

 At SCF step   12   max residual=  6.91E-14 < tolwfr=  1.00E-13 =>converged.

 Cartesian components of stress tensor (hartree/bohr^3)
  sigma(1 1)=  2.22159700E-04  sigma(3 2)=  0.00000000E+00
  sigma(2 2)=  1.10865322E-04  sigma(3 1)=  0.00000000E+00
  sigma(3 3)=  1.10865322E-04  sigma(2 1)=  0.00000000E+00


---OUTPUT-----------------------------------------------------------------------

 Cartesian coordinates (xcart) [bohr]
 -2.18776977894969E+00 -4.61081731220483E-18  1.73500998205233E-16
  2.18776977894969E+00  4.61081731220499E-18 -1.73500998205233E-16
 Reduced coordinates (xred)
 -1.82314148245808E-01 -5.76352164025604E-19  2.16876247756541E-17
  1.82314148245808E-01  5.76352164025623E-19 -2.16876247756541E-17
 Cartesian forces (fcart) [Ha/bohr]; max,rms= 4.51455E-03 2.60647E-03 (free atoms)
 -4.51454602305533E-03 -5.04707974754484E-17 -1.41710441040255E-16
  4.51454602305533E-03  5.04707974754484E-17  1.41710441040255E-16
 Reduced forces (fred)
  5.41745522766588E-02  2.11781396949293E-15  1.43209783779286E-15
 -5.41745522766691E-02  1.31028120988575E-15 -8.35269218851212E-16
 Cartesian velocities (vel) [bohr*Ha/hbar]; max,rms= 1.41008E-04 8.14108E-05 (free atoms)
  1.41007690856942E-04  8.23495781701457E-20 -6.92970398189131E-19
 -1.41007690856942E-04 -8.23495781701466E-20  6.92970398189131E-19
 Kinetic energy of ions (ekin) [Ha]=  1.01485438833829E-03
 Total energy (etotal) [Ha]= -8.67304987575919E+00

 Difference of energy with previous step (new-old):
           Absolute (Ha)=-5.79142E-03
           Relative     =-6.67972E-04

--- Iteration: ( 3/10) Internal Cycle: (1/1)
--------------------------------------------------------------------------------

---SELF-CONSISTENT-FIELD CONVERGENCE--------------------------------------------

     iter   Etot(hartree)      deltaE(h)  residm     vres2

 ETOT  1  -8.6730607747210    -8.673E+00 8.078E-10 5.581E-02

 prteigrs : about to open file t21o_TIM3_EIG
 Fermi (or HOMO) energy (hartree) =  -0.04007   Average Vxc (hartree)=  -0.22369
 Eigenvalues (hartree) for nkpt=   1  k points, SPIN UP:
 kpt#   1, nband=  5, wtk=  1.00000, kpt=  0.0000  0.0000  0.0000 (reduced coord)
  -0.36052  -0.22150  -0.09734  -0.04007  -0.04007
 Eigenvalues (hartree) for nkpt=   1  k points, SPIN DOWN:
 kpt#   1, nband=  3, wtk=  1.00000, kpt=  0.0000  0.0000  0.0000 (reduced coord)
  -0.32468  -0.19239  -0.08128
 Fermi (or HOMO) energy (eV) =  -1.09040   Average Vxc (eV)=  -6.08679
 Eigenvalues (   eV  ) for nkpt=   1  k points, SPIN UP:
 kpt#   1, nband=  5, wtk=  1.00000, kpt=  0.0000  0.0000  0.0000 (reduced coord)
  -9.81036  -6.02727  -2.64885  -1.09040  -1.09040
 Eigenvalues (   eV  ) for nkpt=   1  k points, SPIN DOWN:
 kpt#   1, nband=  3, wtk=  1.00000, kpt=  0.0000  0.0000  0.0000 (reduced coord)
  -8.83492  -5.23508  -2.21174

 ETOT  2  -8.6730775385841    -1.676E-05 8.767E-11 3.620E-03

 prteigrs : about to open file t21o_TIM3_EIG
 Fermi (or HOMO) energy (hartree) =  -0.04063   Average Vxc (hartree)=  -0.22364
 Eigenvalues (hartree) for nkpt=   1  k points, SPIN UP:
 kpt#   1, nband=  5, wtk=  1.00000, kpt=  0.0000  0.0000  0.0000 (reduced coord)
  -0.36129  -0.22170  -0.09748  -0.04063  -0.04063
 Eigenvalues (hartree) for nkpt=   1  k points, SPIN DOWN:
 kpt#   1, nband=  3, wtk=  1.00000, kpt=  0.0000  0.0000  0.0000 (reduced coord)
  -0.32541  -0.19250  -0.08139
 Fermi (or HOMO) energy (eV) =  -1.10558   Average Vxc (eV)=  -6.08550
 Eigenvalues (   eV  ) for nkpt=   1  k points, SPIN UP:
 kpt#   1, nband=  5, wtk=  1.00000, kpt=  0.0000  0.0000  0.0000 (reduced coord)
  -9.83107  -6.03264  -2.65252  -1.10558  -1.10558
 Eigenvalues (   eV  ) for nkpt=   1  k points, SPIN DOWN:
 kpt#   1, nband=  3, wtk=  1.00000, kpt=  0.0000  0.0000  0.0000 (reduced coord)
  -8.85491  -5.23827  -2.21486

 ETOT  3  -8.6730786239460    -1.085E-06 4.831E-08 7.388E-06

 prteigrs : about to open file t21o_TIM3_EIG
 Fermi (or HOMO) energy (hartree) =  -0.04072   Average Vxc (hartree)=  -0.22362
 Eigenvalues (hartree) for nkpt=   1  k points, SPIN UP:
 kpt#   1, nband=  5, wtk=  1.00000, kpt=  0.0000  0.0000  0.0000 (reduced coord)
  -0.36144  -0.22167  -0.09743  -0.04072  -0.04072
 Eigenvalues (hartree) for nkpt=   1  k points, SPIN DOWN:
 kpt#   1, nband=  3, wtk=  1.00000, kpt=  0.0000  0.0000  0.0000 (reduced coord)
  -0.32559  -0.19247  -0.08136
 Fermi (or HOMO) energy (eV) =  -1.10815   Average Vxc (eV)=  -6.08509
 Eigenvalues (   eV  ) for nkpt=   1  k points, SPIN UP:
 kpt#   1, nband=  5, wtk=  1.00000, kpt=  0.0000  0.0000  0.0000 (reduced coord)
  -9.83540  -6.03192  -2.65125  -1.10815  -1.10815
 Eigenvalues (   eV  ) for nkpt=   1  k points, SPIN DOWN:
 kpt#   1, nband=  3, wtk=  1.00000, kpt=  0.0000  0.0000  0.0000 (reduced coord)
  -8.85964  -5.23731  -2.21395

 ETOT  4  -8.6730786275535    -3.608E-09 2.779E-11 2.814E-06

 prteigrs : about to open file t21o_TIM3_EIG
 Fermi (or HOMO) energy (hartree) =  -0.04070   Average Vxc (hartree)=  -0.22362
 Eigenvalues (hartree) for nkpt=   1  k points, SPIN UP:
 kpt#   1, nband=  5, wtk=  1.00000, kpt=  0.0000  0.0000  0.0000 (reduced coord)
  -0.36142  -0.22165  -0.09741  -0.04070  -0.04070
 Eigenvalues (hartree) for nkpt=   1  k points, SPIN DOWN:
 kpt#   1, nband=  3, wtk=  1.00000, kpt=  0.0000  0.0000  0.0000 (reduced coord)
  -0.32557  -0.19245  -0.08135
 Fermi (or HOMO) energy (eV) =  -1.10763   Average Vxc (eV)=  -6.08510
 Eigenvalues (   eV  ) for nkpt=   1  k points, SPIN UP:
 kpt#   1, nband=  5, wtk=  1.00000, kpt=  0.0000  0.0000  0.0000 (reduced coord)
  -9.83483  -6.03140  -2.65075  -1.10763  -1.10763
 Eigenvalues (   eV  ) for nkpt=   1  k points, SPIN DOWN:
 kpt#   1, nband=  3, wtk=  1.00000, kpt=  0.0000  0.0000  0.0000 (reduced coord)
  -8.85923  -5.23684  -2.21355

 ETOT  5  -8.6730786288603    -1.307E-09 2.163E-11 7.708E-08

 prteigrs : about to open file t21o_TIM3_EIG
 Fermi (or HOMO) energy (hartree) =  -0.04070   Average Vxc (hartree)=  -0.22362
 Eigenvalues (hartree) for nkpt=   1  k points, SPIN UP:
 kpt#   1, nband=  5, wtk=  1.00000, kpt=  0.0000  0.0000  0.0000 (reduced coord)
  -0.36142  -0.22165  -0.09741  -0.04070  -0.04070
 Eigenvalues (hartree) for nkpt=   1  k points, SPIN DOWN:
 kpt#   1, nband=  3, wtk=  1.00000, kpt=  0.0000  0.0000  0.0000 (reduced coord)
  -0.32557  -0.19245  -0.08135
 Fermi (or HOMO) energy (eV) =  -1.10760   Average Vxc (eV)=  -6.08511
 Eigenvalues (   eV  ) for nkpt=   1  k points, SPIN UP:
 kpt#   1, nband=  5, wtk=  1.00000, kpt=  0.0000  0.0000  0.0000 (reduced coord)
  -9.83474  -6.03137  -2.65074  -1.10760  -1.10760
 Eigenvalues (   eV  ) for nkpt=   1  k points, SPIN DOWN:
 kpt#   1, nband=  3, wtk=  1.00000, kpt=  0.0000  0.0000  0.0000 (reduced coord)
  -8.85925  -5.23673  -2.21354

 ETOT  6  -8.6730786288898    -2.952E-11 1.747E-12 8.373E-09

 prteigrs : about to open file t21o_TIM3_EIG
 Fermi (or HOMO) energy (hartree) =  -0.04070   Average Vxc (hartree)=  -0.22362
 Eigenvalues (hartree) for nkpt=   1  k points, SPIN UP:
 kpt#   1, nband=  5, wtk=  1.00000, kpt=  0.0000  0.0000  0.0000 (reduced coord)
  -0.36142  -0.22165  -0.09741  -0.04070  -0.04070
 Eigenvalues (hartree) for nkpt=   1  k points, SPIN DOWN:
 kpt#   1, nband=  3, wtk=  1.00000, kpt=  0.0000  0.0000  0.0000 (reduced coord)
  -0.32557  -0.19245  -0.08135
 Fermi (or HOMO) energy (eV) =  -1.10761   Average Vxc (eV)=  -6.08511
 Eigenvalues (   eV  ) for nkpt=   1  k points, SPIN UP:
 kpt#   1, nband=  5, wtk=  1.00000, kpt=  0.0000  0.0000  0.0000 (reduced coord)
  -9.83475  -6.03138  -2.65076  -1.10761  -1.10761
 Eigenvalues (   eV  ) for nkpt=   1  k points, SPIN DOWN:
 kpt#   1, nband=  3, wtk=  1.00000, kpt=  0.0000  0.0000  0.0000 (reduced coord)
  -8.85928  -5.23672  -2.21355

 ETOT  7  -8.6730786288936    -3.812E-12 2.142E-13 2.597E-09

 prteigrs : about to open file t21o_TIM3_EIG
 Fermi (or HOMO) energy (hartree) =  -0.04070   Average Vxc (hartree)=  -0.22362
 Eigenvalues (hartree) for nkpt=   1  k points, SPIN UP:
 kpt#   1, nband=  5, wtk=  1.00000, kpt=  0.0000  0.0000  0.0000 (reduced coord)
  -0.36142  -0.22165  -0.09741  -0.04070  -0.04070
 Eigenvalues (hartree) for nkpt=   1  k points, SPIN DOWN:
 kpt#   1, nband=  3, wtk=  1.00000, kpt=  0.0000  0.0000  0.0000 (reduced coord)
  -0.32557  -0.19245  -0.08135
 Fermi (or HOMO) energy (eV) =  -1.10761   Average Vxc (eV)=  -6.08511
 Eigenvalues (   eV  ) for nkpt=   1  k points, SPIN UP:
 kpt#   1, nband=  5, wtk=  1.00000, kpt=  0.0000  0.0000  0.0000 (reduced coord)
  -9.83475  -6.03139  -2.65076  -1.10761  -1.10761
 Eigenvalues (   eV  ) for nkpt=   1  k points, SPIN DOWN:
 kpt#   1, nband=  3, wtk=  1.00000, kpt=  0.0000  0.0000  0.0000 (reduced coord)
  -8.85929  -5.23672  -2.21355

 ETOT  8  -8.6730786288948    -1.117E-12 9.197E-14 8.111E-10

 prteigrs : about to open file t21o_TIM3_EIG
 Fermi (or HOMO) energy (hartree) =  -0.04070   Average Vxc (hartree)=  -0.22362
 Eigenvalues (hartree) for nkpt=   1  k points, SPIN UP:
 kpt#   1, nband=  5, wtk=  1.00000, kpt=  0.0000  0.0000  0.0000 (reduced coord)
  -0.36142  -0.22165  -0.09741  -0.04070  -0.04070
 Eigenvalues (hartree) for nkpt=   1  k points, SPIN DOWN:
 kpt#   1, nband=  3, wtk=  1.00000, kpt=  0.0000  0.0000  0.0000 (reduced coord)
  -0.32557  -0.19245  -0.08135
 Fermi (or HOMO) energy (eV) =  -1.10761   Average Vxc (eV)=  -6.08511
 Eigenvalues (   eV  ) for nkpt=   1  k points, SPIN UP:
 kpt#   1, nband=  5, wtk=  1.00000, kpt=  0.0000  0.0000  0.0000 (reduced coord)
  -9.83475  -6.03139  -2.65076  -1.10761  -1.10761
 Eigenvalues (   eV  ) for nkpt=   1  k points, SPIN DOWN:
 kpt#   1, nband=  3, wtk=  1.00000, kpt=  0.0000  0.0000  0.0000 (reduced coord)
  -8.85930  -5.23672  -2.21355

 At SCF step    8   max residual=  9.20E-14 < tolwfr=  1.00E-13 =>converged.

 Cartesian components of stress tensor (hartree/bohr^3)
  sigma(1 1)=  2.26113389E-04  sigma(3 2)=  0.00000000E+00
  sigma(2 2)=  1.10897253E-04  sigma(3 1)=  0.00000000E+00
  sigma(3 3)=  1.10897253E-04  sigma(2 1)=  0.00000000E+00


---OUTPUT-----------------------------------------------------------------------

 Cartesian coordinates (xcart) [bohr]
 -2.19117132229987E+00 -1.14999994843097E-16 -2.38678593424224E-16
  2.19117132229987E+00  1.14999994843097E-16  2.38678593424224E-16
 Reduced coordinates (xred)
 -1.82597610191656E-01 -1.43749993553871E-17 -2.98348241780280E-17
  1.82597610191656E-01  1.43749993553871E-17  2.98348241780280E-17
 Cartesian forces (fcart) [Ha/bohr]; max,rms= 3.94005E-03 2.27479E-03 (free atoms)
 -3.94004754963246E-03  1.23165755758240E-16 -1.65938703188954E-16
  3.94004754963246E-03 -1.23165755758240E-16  1.65938703188954E-16
 Reduced forces (fred)
  4.72805705955714E-02  5.14982441145249E-16  2.04960517042543E-15
 -4.72805705956076E-02  2.48563453327710E-15 -6.05414080597835E-16
 Cartesian velocities (vel) [bohr*Ha/hbar]; max,rms= 1.41008E-04 8.14108E-05 (free atoms)
  1.41007690856942E-04  8.23495781701457E-20 -6.92970398189131E-19
 -1.41007690856942E-04 -8.23495781701466E-20  6.92970398189131E-19
 Kinetic energy of ions (ekin) [Ha]=  1.01485438833829E-03
 Total energy (etotal) [Ha]= -8.67307862889476E+00

 Difference of energy with previous step (new-old):
           Absolute (Ha)=-2.87531E-05
           Relative     =-3.31522E-06

--- Iteration: ( 4/10) Internal Cycle: (1/1)
--------------------------------------------------------------------------------

---SELF-CONSISTENT-FIELD CONVERGENCE--------------------------------------------

     iter   Etot(hartree)      deltaE(h)  residm     vres2

 ETOT  1  -8.6728086962850    -8.673E+00 2.554E-08 1.102E+00

 prteigrs : about to open file t21o_TIM4_EIG
 Fermi (or HOMO) energy (hartree) =  -0.03663   Average Vxc (hartree)=  -0.22404
 Eigenvalues (hartree) for nkpt=   1  k points, SPIN UP:
 kpt#   1, nband=  5, wtk=  1.00000, kpt=  0.0000  0.0000  0.0000 (reduced coord)
  -0.35573  -0.22161  -0.09726  -0.03663  -0.03663
 Eigenvalues (hartree) for nkpt=   1  k points, SPIN DOWN:
 kpt#   1, nband=  3, wtk=  1.00000, kpt=  0.0000  0.0000  0.0000 (reduced coord)
  -0.32017  -0.19267  -0.08114
 Fermi (or HOMO) energy (eV) =  -0.99682   Average Vxc (eV)=  -6.09638
 Eigenvalues (   eV  ) for nkpt=   1  k points, SPIN UP:
 kpt#   1, nband=  5, wtk=  1.00000, kpt=  0.0000  0.0000  0.0000 (reduced coord)
  -9.67998  -6.03027  -2.64662  -0.99682  -0.99682
 Eigenvalues (   eV  ) for nkpt=   1  k points, SPIN DOWN:
 kpt#   1, nband=  3, wtk=  1.00000, kpt=  0.0000  0.0000  0.0000 (reduced coord)
  -8.71226  -5.24279  -2.20789

 ETOT  2  -8.6731391165443    -3.304E-04 1.670E-09 7.045E-02

 prteigrs : about to open file t21o_TIM4_EIG
 Fermi (or HOMO) energy (hartree) =  -0.03905   Average Vxc (hartree)=  -0.22383
 Eigenvalues (hartree) for nkpt=   1  k points, SPIN UP:
 kpt#   1, nband=  5, wtk=  1.00000, kpt=  0.0000  0.0000  0.0000 (reduced coord)
  -0.35902  -0.22246  -0.09785  -0.03905  -0.03905
 Eigenvalues (hartree) for nkpt=   1  k points, SPIN DOWN:
 kpt#   1, nband=  3, wtk=  1.00000, kpt=  0.0000  0.0000  0.0000 (reduced coord)
  -0.32333  -0.19317  -0.08165
 Fermi (or HOMO) energy (eV) =  -1.06257   Average Vxc (eV)=  -6.09073
 Eigenvalues (   eV  ) for nkpt=   1  k points, SPIN UP:
 kpt#   1, nband=  5, wtk=  1.00000, kpt=  0.0000  0.0000  0.0000 (reduced coord)
  -9.76949  -6.05344  -2.66263  -1.06257  -1.06257
 Eigenvalues (   eV  ) for nkpt=   1  k points, SPIN DOWN:
 kpt#   1, nband=  3, wtk=  1.00000, kpt=  0.0000  0.0000  0.0000 (reduced coord)
  -8.79828  -5.25635  -2.22181

 ETOT  3  -8.6731602143180    -2.110E-05 9.419E-07 1.439E-04

 prteigrs : about to open file t21o_TIM4_EIG
 Fermi (or HOMO) energy (hartree) =  -0.03945   Average Vxc (hartree)=  -0.22376
 Eigenvalues (hartree) for nkpt=   1  k points, SPIN UP:
 kpt#   1, nband=  5, wtk=  1.00000, kpt=  0.0000  0.0000  0.0000 (reduced coord)
  -0.35971  -0.22234  -0.09764  -0.03945  -0.03945
 Eigenvalues (hartree) for nkpt=   1  k points, SPIN DOWN:
 kpt#   1, nband=  3, wtk=  1.00000, kpt=  0.0000  0.0000  0.0000 (reduced coord)
  -0.32408  -0.19301  -0.08150
 Fermi (or HOMO) energy (eV) =  -1.07353   Average Vxc (eV)=  -6.08894
 Eigenvalues (   eV  ) for nkpt=   1  k points, SPIN UP:
 kpt#   1, nband=  5, wtk=  1.00000, kpt=  0.0000  0.0000  0.0000 (reduced coord)
  -9.78810  -6.05020  -2.65704  -1.07353  -1.07353
 Eigenvalues (   eV  ) for nkpt=   1  k points, SPIN DOWN:
 kpt#   1, nband=  3, wtk=  1.00000, kpt=  0.0000  0.0000  0.0000 (reduced coord)
  -8.81858  -5.25200  -2.21782

 ETOT  4  -8.6731602837953    -6.948E-08 5.526E-10 5.437E-05

 prteigrs : about to open file t21o_TIM4_EIG
 Fermi (or HOMO) energy (hartree) =  -0.03937   Average Vxc (hartree)=  -0.22377
 Eigenvalues (hartree) for nkpt=   1  k points, SPIN UP:
 kpt#   1, nband=  5, wtk=  1.00000, kpt=  0.0000  0.0000  0.0000 (reduced coord)
  -0.35962  -0.22226  -0.09756  -0.03937  -0.03937
 Eigenvalues (hartree) for nkpt=   1  k points, SPIN DOWN:
 kpt#   1, nband=  3, wtk=  1.00000, kpt=  0.0000  0.0000  0.0000 (reduced coord)
  -0.32401  -0.19293  -0.08144
 Fermi (or HOMO) energy (eV) =  -1.07129   Average Vxc (eV)=  -6.08900
 Eigenvalues (   eV  ) for nkpt=   1  k points, SPIN UP:
[...]
- scfcv-scprqt                   0.038   1.3      0.036   1.3            109      -1.00    
- ewald2 (+vdw_dftd2)            0.036   1.3      0.036   1.2             13      -1.00    
- getghc-other                   0.033   1.1      0.038   1.3             -1      -1.00    
- mkcore                         0.029   1.0      0.030   1.1             39      -1.00    
- abinit(2)                      0.029   1.0      0.029   1.0              1      -1.00    
- vtowfk(ssdiag)                 0.027   0.9      0.027   0.9             -1      -1.00    
- forces                         0.026   0.9      0.026   0.9             13      -1.00    
- vtowfk(contrib)                0.014   0.5      0.015   0.5            218      -1.00    
- vtorho(MPI)                    0.010   0.3      0.009   0.3            109      -1.00    
- symrhg(no FFT)                 0.009   0.3      0.004   0.1            110      -1.00    
- nonlop(forstr)                 0.004   0.1      0.006   0.2            104      -1.00    
- vtowfk  (1)                    0.002   0.1      0.003   0.1            218      -1.00    
- mkrho/=                        0.001   0.0      0.001   0.0              2      -1.00    
- kpgsph                         0.000   0.0      0.000   0.0              2      -1.00    
- status                         0.000   0.0      0.001   0.0            143      -1.00    
- vtowfk3(contrib)               0.000   0.0      0.000   0.0             -1      -1.00    
- cgwf3-O(npw)                   0.000   0.0      0.000   0.0             -1      -1.00    
- inwffil(excl. calls)           0.000   0.0      0.000   0.0              1      -1.00    
- wfsinp(excl. calls)            0.000   0.0      0.000   0.0              1      -1.00    
- initwf(before rwwf)            0.000   0.0      0.000   0.0              2      -1.00    
- initwf(after rwwf)             0.000   0.0      0.000   0.0              2      -1.00    
- newkpt(excl. rwwf   )          0.000   0.0      0.000   0.0             -1      -1.00    
- others (72)                    0.000   0.0      0.000   0.0             -1      -1.00    
-<END_TIMER>
-
- subtotal                       2.596  90.2      2.607  90.5

- For major independent code sections, cpu and wall times (sec),
- as well as % of the total time and number of calls 

-<BEGIN_TIMER mpi_nprocs = 1, omp_nthreads = 1, mpi_rank = world>
- cpu_time =           2.9, wall_time =           2.9
-
- routine                         cpu     %       wall     %      number of calls Gflops 
-                                                                  (-1=no count)
- xc:pot/=fourdp                 0.839  29.1      0.830  28.8            122      -1.00    
- fourwf%(pot)                   0.588  20.4      0.594  20.6           3850      -1.00    
- fourdp                         0.223   7.7      0.236   8.2           1221      -1.00    
- timing timab                   0.136   4.7      0.136   4.7             14      -1.00    
- pspini                         0.129   4.5      0.128   4.5              1      -1.00    
- invars2                        0.108   3.8      0.108   3.7              1      -1.00    
- nonlop(apply)                  0.090   3.1      0.090   3.1           3850      -1.00    
- fourwf%(den)                   0.066   2.3      0.073   2.5            880      -1.00    
- stress                         0.063   2.2      0.062   2.2             13      -1.00    
- ewald                          0.051   1.8      0.051   1.8             13      -1.00    
- projbd                         0.045   1.6      0.038   1.3           5572      -1.00    
- scfcv-scprqt                   0.038   1.3      0.036   1.3            109      -1.00    
- ewald2 (+vdw_dftd2)            0.036   1.3      0.036   1.2             13      -1.00    
- getghc-other                   0.033   1.1      0.038   1.3             -1      -1.00    
- mkcore                         0.029   1.0      0.030   1.1             39      -1.00    
- abinit(2)                      0.029   1.0      0.029   1.0              1      -1.00    
- vtowfk(ssdiag)                 0.027   0.9      0.027   0.9             -1      -1.00    
- forces                         0.026   0.9      0.026   0.9             13      -1.00    
- vtowfk(contrib)                0.014   0.5      0.015   0.5            218      -1.00    
- vtorho(MPI)                    0.010   0.3      0.009   0.3            109      -1.00    
- symrhg(no FFT)                 0.009   0.3      0.004   0.1            110      -1.00    
- nonlop(forstr)                 0.004   0.1      0.006   0.2            104      -1.00    
- vtowfk  (1)                    0.002   0.1      0.003   0.1            218      -1.00    
- mkrho/=                        0.001   0.0      0.001   0.0              2      -1.00    
- kpgsph                         0.000   0.0      0.000   0.0              2      -1.00    
- status                         0.000   0.0      0.001   0.0            143      -1.00    
- vtowfk3(contrib)               0.000   0.0      0.000   0.0             -1      -1.00    
- cgwf3-O(npw)                   0.000   0.0      0.000   0.0             -1      -1.00    
- inwffil(excl. calls)           0.000   0.0      0.000   0.0              1      -1.00    
- wfsinp(excl. calls)            0.000   0.0      0.000   0.0              1      -1.00    
- initwf(before rwwf)            0.000   0.0      0.000   0.0              2      -1.00    
- initwf(after rwwf)             0.000   0.0      0.000   0.0              2      -1.00    
- newkpt(excl. rwwf   )          0.000   0.0      0.000   0.0             -1      -1.00    
- others (72)                    0.000   0.0      0.000   0.0             -1      -1.00    
-<END_TIMER>

- subtotal                       2.596  90.2      2.607  90.5

 Partitioning of abinit
- abinit                         2.879 100.0      2.880 100.0              1
 
- abinit(1)                      0.009   0.3      0.009   0.3              1
- abinit(2)                      0.029   1.0      0.029   1.0              1
- indefo+macroin+invars2m        0.108   3.8      0.108   3.8              1
- abinit(4)                      0.010   0.3      0.010   0.4              1
- abinit(5)                      0.007   0.2      0.007   0.2              1
- driver                         2.576  89.5      2.577  89.5              1
- abinit(6)                      0.003   0.1      0.003   0.1              1
- timing timab                   0.136   4.7      0.136   4.7             14

- subtotal                       2.879 100.0      2.880 100.0

 Partitioning of driver
- driver                         2.576  89.5      2.577  89.5              1
 
- gstateimg                      2.576  89.5      2.577  89.5              1

- subtotal                       2.576  89.5      2.577  89.5

 Partitioning of gstateimg+gstate
- gstateimg                      2.576  89.5      2.577  89.5              1
 
- gstate->kpgsph                 0.000   0.0      0.001   0.0              2
- gstate(pspini)                 0.129   4.5      0.128   4.5              1
- gstate  (2)                    0.002   0.1      0.002   0.1              1
- gstate(...scfcv)               2.443  84.9      2.444  84.9              1
- gstate  (3)                    0.002   0.1      0.002   0.1              1

- subtotal                       2.576  89.5      2.577  89.5

 Partitioning of scfcv
- scfcv                          2.430  84.4      2.431  84.4             13
 
- scfcv   (1)                    0.002   0.1      0.002   0.1             13
- scfcv(iniloop, setvtr  )       0.183   6.4      0.183   6.3            109
- scfcv-read                     0.001   0.0      0.001   0.0            109
- scfcv(vtorho(f))               1.064  37.0      1.066  37.0            109
- scfcv-scprqt                   0.038   1.3      0.036   1.3            109
- scfcv(rhotov)                  0.975  33.9      0.973  33.8            109
- scfcv(mix pot)                 0.044   1.5      0.050   1.7             96
- scfcv(afterscfloop)            0.096   3.3      0.097   3.4             13
- scfcv(outscfcv)                0.021   0.7      0.021   0.7             13
- (other)                        0.001   0.0      0.001   0.0             -1

- subtotal                       2.430  84.4      2.431  84.4

 Partitioning of rhotov
- rhotov                         0.975  33.9      0.973  33.8            109
 
- rhotov(rhohxc)                 0.944  32.8      0.941  32.7            109
- rhotov(dotprod_vn)             0.002   0.1      0.001   0.1            109
- rhotov(other)                  0.028   1.0      0.029   1.0            109

- subtotal                       0.975  33.9      0.973  33.8

 Partitioning of vtorho
- vtorho                         1.063  36.9      1.065  37.0            109
 
- vtorho(bef. spin loop)         0.008   0.3      0.004   0.1            109
- vtorho(bef. kpt  loop)         0.002   0.1      0.007   0.2            218
- vtorho(bef. vtowfk)            0.017   0.6      0.014   0.5            218
- vtowfk                         0.935  32.5      0.936  32.5            218
- vtorho(aft. kpt loop)          0.004   0.1      0.003   0.1            218
- vtorho(aft. spin loop)         0.000   0.0      0.001   0.0            109
- vtorho(MPI)                    0.010   0.3      0.009   0.3            109
- vtorho(mkrho 2)                0.085   3.0      0.089   3.1            218
- (other)                        0.001   0.0      0.001   0.0             -1

- subtotal                       1.063  36.9      1.065  37.0

 Partitioning of vtowfk
- vtowfk                         0.935  32.5      0.936  32.5            218
 
- vtowfk  (1)                    0.002   0.1      0.003   0.1            218
- cgwf                           0.826  28.7      0.819  28.4            266
- vtowfk(subdiago)               0.014   0.5      0.013   0.5            266
- vtowfk(pw_orthon)              0.006   0.2      0.005   0.2            266
- vtowfk(2)                      0.007   0.2      0.008   0.3             -1
- fourwf%vtowfk                  0.066   2.3      0.073   2.5            872
- vtowfk(3)                      0.013   0.5      0.014   0.5             -1

- subtotal                       0.935  32.5      0.936  32.5

 Partitioning of cgwf
- cgwf                           0.826  28.7      0.819  28.4            266
 
- getghc%cgwf                    0.711  24.7      0.721  25.0           3850
- cgwf-O(npw)                    0.070   2.4      0.060   2.1             -1
- projbd%cgwf                    0.045   1.6      0.038   1.3           5572

- subtotal                       0.826  28.7      0.819  28.4

 Partitioning of getghc
- getghc                         0.711  24.7      0.721  25.0           3850
 
- fourwf%getghc                  0.588  20.4      0.594  20.6           3850
- nonlop%getghc                  0.090   3.1      0.090   3.1           3850
- getghc-other                   0.033   1.1      0.038   1.3             -1

- subtotal                       0.711  24.7      0.721  25.0

 Partitioning of fourwf (upwards partitioning)
- fourwf                         0.654  22.7      0.667  23.2           4730
 
- fourwf%getghc                  0.588  20.4      0.594  20.6           3850
- fourwf%vtowfk                  0.066   2.3      0.073   2.5            872
- fourwf%mkrho                   0.000   0.0      0.001   0.0              8

- subtotal                       0.654  22.7      0.667  23.2

 Partitioning of mkrho (upwards partitioning)
- mkrho                          0.002   0.1      0.002   0.1              1
 
- mkrho%gstate                   0.002   0.1      0.002   0.1              1

- subtotal                       0.002   0.1      0.002   0.1

 Partitioning of inwffil
- inwffil                        0.000   0.0      0.001   0.0              1
 

- subtotal                       0.000   0.0      0.001   0.0

 Partitioning of wfsinp
- wfsinp                         0.000   0.0      0.000   0.0              1
 

- subtotal                       0.000   0.0      0.000   0.0

 Partitioning of initwf
- initwf                         0.000   0.0      0.000   0.0              2
 

- subtotal                       0.000   0.0      0.000   0.0

 Partitioning of newkpt
- newkpt                         0.000   0.0      0.000   0.0              1
 

- subtotal                       0.000   0.0      0.000   0.0

 Partitioning of newvtr
- newvtr                         0.044   1.5      0.050   1.7             96
 
- newvtr(before selection)       0.002   0.1      0.004   0.2             96
- newvtr(call prcref_PMA)        0.007   0.2      0.005   0.2             96
- newvtr(aft. prcref_PMA)        0.022   0.8      0.023   0.8             96
- newvtr(mean potential)         0.003   0.1      0.004   0.1             96
- (other)                        0.009   0.3      0.013   0.4             -1

- subtotal                       0.044   1.5      0.050   1.7

 Partitioning of  fourdp (upwards partitioning)
- fourdp                         0.223   7.7      0.236   8.2           1221
 
- fourdp%(other)                 0.223   7.7      0.236   8.2           1221

- subtotal                       0.223   7.7      0.236   8.2

 Partitioning of afterscfloop
- afterscfloop                   0.096   3.3      0.097   3.4             13
 
- afterscfloop(forstr)           0.096   3.3      0.097   3.4             13

- subtotal                       0.096   3.3      0.097   3.4

 Partitioning of forstr
- forstr                         0.096   3.3      0.097   3.4             13
 
- forstr(forstrnps)              0.007   0.2      0.009   0.3             13
- forstr(forces)                 0.026   0.9      0.026   0.9             13
- forstr(stress)                 0.063   2.2      0.062   2.2             13

- subtotal                       0.096   3.3      0.097   3.4

 Partitioning of forstrnps
- forstrnps                      0.007   0.2      0.009   0.3             13
 
- forstrnps(bef.loop band)       0.003   0.1      0.002   0.1             26
- forstrnps(nonlop+prep_ba       0.004   0.1      0.006   0.2            104

- subtotal                       0.007   0.2      0.009   0.3

 Partitioning of outscfcv
- outscfcv                       0.021   0.7      0.020   0.7             13
 
- outscfcv([PAW]prtden)          0.011   0.4      0.010   0.4             13

- subtotal                       0.011   0.4      0.010   0.4
-
-Synchronisation (=leave_test) and MPI calls 
- communic.MPI                   0.000   0.0      0.002   0.1           5713
-
- forstrnps:synchr               0.000   0.0      0.000   0.0             26
- wfsinp:synchro                 0.000   0.0      0.000   0.0              1
- mkrho :MPIrhor                 0.000   0.0      0.000   0.0              1
-
- subtotal                       0.000   0.0      0.000   0.0

 Additional information
- timana(1)                      0.001   0.0      0.000   0.0              1
- total timab                    0.165   5.7      0.166   5.8         236355
- fourwf                         0.654  22.7      0.667  23.2           4730
- mklocl(2)                      0.007   0.2      0.006   0.2             13
- status                         0.000   0.0      0.001   0.0            143
- nonlop(forstr)                 0.004   0.1      0.006   0.2            104
- nonlop(total)                  0.094   3.3      0.096   3.3           3954
- xc:fourdp                      0.182   6.3      0.189   6.6            976


 Detailed analysis of some time consuming routines 
                                  tcpu    ncalls  tcpu/ncalls    ndata tcpu/ncalls/ndata
                                 (sec)                (msec)              (microsec)
- fourwf%(pot)                   0.588      3850       0.153     24000       0.006
- fourwf%(den)                   0.066       880       0.075     12000       0.006
- fourdp                         0.223      1221       0.183     12000       0.015
- nonlop(apply)                  0.090      3850       0.023      1350       0.017
- nonlop(forces)                 0.000         0
- nonlop(forstr)                 0.004       104       0.038      1350       0.028
- projbd                         0.045      5572       0.008      2700       0.003
- xc:pot/=fourdp                 0.839       122       6.876     24000       0.287

================================================================================

 Suggested references for the acknowledgment of ABINIT usage.

 The users of ABINIT have little formal obligations with respect to the ABINIT group
 (those specified in the GNU General Public License, http://www.gnu.org/copyleft/gpl.txt).
 However, it is common practice in the scientific literature,
 to acknowledge the efforts of people that have made the research possible.
 In this spirit, please find below suggested citations of work written by ABINIT developers,
 corresponding to implementations inside of ABINIT that you have used in the present run.
 Note also that it will be of great value to readers of publications presenting these results,
 to read papers enabling them to understand the theoretical formalism and details
 of the ABINIT implementation.
 For information on why they are suggested, see also http://www.abinit.org/about/?text=acknowledgments.

 [1] ABINIT : First-principles approach of materials and nanosystem properties.
 X. Gonze, B. Amadon, P.-M. Anglade, J.-M. Beuken, F. Bottin, P. Boulanger, F. Bruneval,
 D. Caliste, R. Caracas, M. Cote, T. Deutsch, L. Genovese, Ph. Ghosez, M. Giantomassi
 S. Goedecker, D.R. Hamann, P. Hermet, F. Jollet, G. Jomard, S. Leroux, M. Mancini, S. Mazevet,
 M.J.T. Oliveira, G. Onida, Y. Pouillon, T. Rangel, G.-M. Rignanese, D. Sangalli, R. Shaltaf,
 M. Torrent, M.J. Verstraete, G. Zerah, J.W. Zwanziger
 Computer Phys. Comm. 180, 2582-2615 (2009).
 Comment : the third generic paper describing the ABINIT project.
 Note that a version of this paper, that is not formatted for Computer Phys. Comm. 
 is available at http://www.abinit.org/about/ABINIT_CPC_v10.pdf .
 The licence allows the authors to put it on the Web.

 [2] A brief introduction to the ABINIT software package.
 X. Gonze, G.-M. Rignanese, M. Verstraete, J.-M. Beuken, Y. Pouillon, R. Caracas, F. Jollet,
 M. Torrent, G. Zerah, M. Mikami, Ph. Ghosez, M. Veithen, J.-Y. Raty, V. Olevano, F. Bruneval,
 L. Reining, R. Godby, G. Onida, D.R. Hamann, and D.C. Allan.
 Z. Kristallogr. 220, 558-562 (2005).
 Comment : the second generic paper describing the ABINIT project. Note that this paper
 should be cited especially if you are using the GW part of ABINIT, as several authors
 of this part are not in the list of authors of the first or third paper.
 The .pdf of the latter paper is available at http://www.abinit.org/about/zfk_0505-06_558-562.pdf.
 Note that it should not redistributed (Copyright by Oldenburg Wissenshaftverlag,
 the licence allows the authors to put it on the Web).


 And optionally :

 [3] First-principles computation of material properties : the ABINIT software project. 
 X. Gonze, J.-M. Beuken, R. Caracas, F. Detraux, M. Fuchs, G.-M. Rignanese, L. Sindic,
 M. Verstraete, G. Zerah, F. Jollet, M. Torrent, A. Roy, M. Mikami, Ph. Ghosez, J.-Y. Raty, D.C. Allan.
 Computational Materials Science 25, 478-492 (2002). http://dx.doi.org/10.1016/S0927-0256(02)00325-7
 Comment : the original paper describing the ABINIT project.

 [4] Fast radix 2, 3, 4 and 5 kernels for Fast Fourier Transformations
 on computers with overlapping multiply-add instructions.
 S. Goedecker, SIAM J. on Scientific Computing 18, 1605 (1997).
-
- Proc.   0 individual time (sec): cpu=          2.9  wall=          2.9

================================================================================

 Calculation completed.
.Delivered   11 WARNINGs and   2 COMMENTs to log file.
+Overall time at end (sec) : cpu=          2.9  wall=          2.9
