
.Version 7.9.3 of ABINIT 
.(MPI version, prepared for a x86_64_linux_gnu4.7 computer) 

.Copyright (C) 1998-2014 ABINIT group . 
 ABINIT comes with ABSOLUTELY NO WARRANTY.
 It is free software, and you are welcome to redistribute it
 under certain conditions (GNU General Public License,
 see ~abinit/COPYING or http://www.gnu.org/copyleft/gpl.txt).

 ABINIT is a project of the Universite Catholique de Louvain,
 Corning Inc. and other collaborators, see ~abinit/doc/developers/contributors.txt .
 Please read ~abinit/doc/users/acknowledgments.html for suggested
 acknowledgments of the ABINIT effort.
 For more information, see http://www.abinit.org .

.Starting date : Sat 30 Aug 2014.
- ( at 22h19 )
  
- input  file    -> t24.in
- output file    -> t24.out
- root for input  files -> t24i
- root for output files -> t24o


 Symmetries : space group F-4 3 m (#216); Bravais cF (face-center cubic)
================================================================================
 Values of the parameters that define the memory need of the present run
   intxc =         1  ionmov =         0    iscf =         3 xclevel =         1
  lmnmax =         2   lnmax =         2   mband =         7  mffmem =         1
P  mgfft =        24   mkmem =         2 mpssoang=         3     mpw =       637
  mqgrid =      3001   natom =         2    nfft =     13824    nkpt =         2
  nloalg =         4  nspden =         1 nspinor =         1  nsppol =         1
    nsym =        24  n1xccc =      2501  ntypat =         2  occopt =         0
================================================================================
P This job should need less than                       3.730 Mbytes of memory.
P Max. in main chain + fourwf.f
P            9 blocks of mpw  integer numbers, for      0.022 Mbytes.
P           71 blocks of mpw  real(dp)  numbers, for      0.345 Mbytes.
P            2 blocks of nfft integer numbers, for      0.105 Mbytes.
P           23 blocks of nfft real(dp)  numbers, for      2.426 Mbytes.
P              Additional     real(dp)  numbers, for      0.594 Mbytes.
P              With residue estimated to be             0.237 Mbytes.
P
P Comparison of the memory needs of different chains
P Main chain + fourwf.f                 3.730 Mbytes.
P Main chain + nonlop.f + opernl.f      3.352 Mbytes.
P XC chain                              3.492 Mbytes.
P mkrho chain                           2.993 Mbytes.
P fourdp chain                          2.983 Mbytes.
- parallel k-point chain                2.736 Mbytes.
P newvtr chain                          2.947 Mbytes.
  Rough estimation (10% accuracy) of disk space for files :
_ WF disk file :      0.138 Mbytes ; DEN or POT disk file :      0.107 Mbytes.
================================================================================

--------------------------------------------------------------------------------
------------- Echo of variables that govern the present computation ------------
--------------------------------------------------------------------------------
-
- outvars: echo of selected default values                                      
-   accesswff0 =  0 , fftalg0 =112 , wfoptalg0 =  0
-
- outvars: echo of global parameters not present in the input file              
-  max_nthreads =    0
-
 -outvars: echo values of preprocessed input variables --------
            acell      1.1890000000E+01  1.1890000000E+01  1.1890000000E+01 Bohr
              amu      3.90983000E+01  3.54527000E+01
           diemac      1.00000000E+00
           diemix      3.33333333E-01
             ecut      1.00000000E+01 Hartree
           enunit           2
-          fftalg         112
            intxc           1
             iscf           3
              kpt      1.00000000E+00  1.00000000E+00  1.00000000E+00
                       1.00000000E+00  2.00000000E+00  2.00000000E+00
           kptnrm      4.00000000E+00
           kptopt           0
P           mkmem           2
            natom           2
            nband           7
            ngfft          24      24      24
             nkpt           2
            nline           2
            nstep          20
             nsym          24
           ntypat           2
              occ      2.000000  2.000000  2.000000  2.000000  2.000000  2.000000
                       2.000000
           occopt           0
           prtvol          10
            rprim      0.0000000000E+00  5.0000000000E-01  5.0000000000E-01
                       5.0000000000E-01  0.0000000000E+00  5.0000000000E-01
                       5.0000000000E-01  5.0000000000E-01  0.0000000000E+00
          spgroup         216
           symrel      1  0  0   0  1  0   0  0  1       0  1 -1   1  0 -1   0  0 -1
                       0 -1  1   0 -1  0   1 -1  0      -1  0  0  -1  0  1  -1  1  0
                       0  1  0   0  0  1   1  0  0       1  0 -1   0  0 -1   0  1 -1
                       0 -1  0   1 -1  0   0 -1  1      -1  0  1  -1  1  0  -1  0  0
                       0  0  1   1  0  0   0  1  0       0  0 -1   0  1 -1   1  0 -1
                       1 -1  0   0 -1  1   0 -1  0      -1  1  0  -1  0  0  -1  0  1
                       1  0 -1   0  1 -1   0  0 -1       0  1  0   1  0  0   0  0  1
                      -1  0  1  -1  0  0  -1  1  0       0 -1  0   0 -1  1   1 -1  0
                      -1  1  0  -1  0  1  -1  0  0       1 -1  0   0 -1  0   0 -1  1
                       0  0 -1   1  0 -1   0  1 -1       0  0  1   0  1  0   1  0  0
                       0 -1  1   1 -1  0   0 -1  0      -1  0  0  -1  1  0  -1  0  1
                       1  0  0   0  0  1   0  1  0       0  1 -1   0  0 -1   1  0 -1
           timopt          -1
           tolwfr      1.00000000E-15
            typat      1  2
              wtk        0.25000    0.75000
           xangst      0.0000000000E+00  0.0000000000E+00  0.0000000000E+00
                       3.1459585051E+00  3.1459585051E+00  3.1459585051E+00
            xcart      0.0000000000E+00  0.0000000000E+00  0.0000000000E+00
                       5.9450000000E+00  5.9450000000E+00  5.9450000000E+00
             xred      0.0000000000E+00  0.0000000000E+00  0.0000000000E+00
                       5.0000000000E-01  5.0000000000E-01  5.0000000000E-01
            znucl       19.00000   17.00000

================================================================================

 chkinp: Checking input parameters for consistency.

================================================================================
== DATASET  1 ==================================================================
-   nproc =    1

 Exchange-correlation functional for the present dataset will be:
  LDA: new Teter (4/93) with spin-polarized option - ixc=1
 Citation for XC functional:
  S. Goedecker, M. Teter, J. Huetter, PRB 54, 1703 (1996)

 Real(R)+Recip(G) space primitive vectors, cartesian coordinates (Bohr,Bohr^-1):
 R(1)=  0.0000000  5.9450000  5.9450000  G(1)= -0.0841043  0.0841043  0.0841043
 R(2)=  5.9450000  0.0000000  5.9450000  G(2)=  0.0841043 -0.0841043  0.0841043
 R(3)=  5.9450000  5.9450000  0.0000000  G(3)=  0.0841043  0.0841043 -0.0841043
 Unit cell volume ucvol=  4.2022857E+02 bohr^3
 Angles (23,13,12)=  6.00000000E+01  6.00000000E+01  6.00000000E+01 degrees

 getcut: wavevector=  0.0000  0.0000  0.0000  ngfft=  24  24  24
         ecut(hartree)=     10.000   => boxcut(ratio)=   2.00530

--- Pseudopotential description ------------------------------------------------
- pspini: atom type   1  psp file is /home/gonze/ABINIT/ABINITv7.9.3/trunk/7.9.3-private/tests/Psps_for_tests/19k.pspnc
- pspatm: opening atomic psp file    /home/gonze/ABINIT/ABINITv7.9.3/trunk/7.9.3-private/tests/Psps_for_tests/19k.pspnc
-  Troullier-Martins psp for element  K         Thu Oct 27 17:32:43 EDT 1994
- 19.00000   7.00000    940714                znucl, zion, pspdat
    1    1    2    0      2001   0.00000      pspcod,pspxc,lmax,lloc,mmax,r2well
    0   2.017   4.951    0   3.1756741        l,e99.0,e99.9,nproj,rcpsp
   0.00000000   0.00000000   0.00000000   0.00000000     rms, ekb1, ekb2, epsatm
    1   8.562  11.578    1   2.0248520        l,e99.0,e99.9,nproj,rcpsp
   0.00000000   0.00000000   0.00000000   0.00000000     rms, ekb1, ekb2, epsatm
    2  13.022  17.050    1   2.2944752        l,e99.0,e99.9,nproj,rcpsp
   0.00000000   0.00000000   0.00000000   0.00000000     rms, ekb1, ekb2, epsatm
    1.21940820299569    1.35146748512357    2.13845404453136   rchrg,fchrg,qchrg
 pspatm: epsatm=   99.37320054
         --- l  ekb(1:nproj) -->
             1   -3.733361
             2   -4.430113
 pspatm: atomic psp has been read  and splines computed

- pspini: atom type   2  psp file is /home/gonze/ABINIT/ABINITv7.9.3/trunk/7.9.3-private/tests/Psps_for_tests/17cl.pspnc
- pspatm: opening atomic psp file    /home/gonze/ABINIT/ABINITv7.9.3/trunk/7.9.3-private/tests/Psps_for_tests/17cl.pspnc
-  Troullier-Martins psp for element  Cl        Thu Oct 27 17:32:09 EDT 1994
- 17.00000   7.00000    940714                znucl, zion, pspdat
    1    1    2    2      2001   0.00000      pspcod,pspxc,lmax,lloc,mmax,r2well
    0  10.493  25.212    1   1.6350894        l,e99.0,e99.9,nproj,rcpsp
   0.00000000   0.00000000   0.00000000   0.00000000     rms, ekb1, ekb2, epsatm
    1   5.554   8.510    1   1.6350894        l,e99.0,e99.9,nproj,rcpsp
   0.00000000   0.00000000   0.00000000   0.00000000     rms, ekb1, ekb2, epsatm
    2   0.000   0.000    0   1.6350894        l,e99.0,e99.9,nproj,rcpsp
   0.00000000   0.00000000   0.00000000   0.00000000     rms, ekb1, ekb2, epsatm
    1.23315314129373    1.11669953786602    1.82740311420084   rchrg,fchrg,qchrg
 pspatm: epsatm=    2.73037554
         --- l  ekb(1:nproj) -->
             0    6.290146
             1    3.746067
 pspatm: atomic psp has been read  and splines computed

   1.42945007E+03                                ecore*ucvol(ha*bohr**3)
--------------------------------------------------------------------------------

P newkpt: treating      7 bands with npw=     631 for ikpt=   1 by node    0
P newkpt: treating      7 bands with npw=     637 for ikpt=   2 by node    0

_setup2: Arith. and geom. avg. npw (full set) are     635.500     635.495

================================================================================

     iter   Etot(hartree)      deltaE(h)  residm     vres2

 ETOT  1  -32.145013381824    -3.215E+01 2.148E-01 5.370E+02

 prteigrs : about to open file t24o_EIG
 Fermi (or HOMO) energy (hartree) =  -0.09171   Average Vxc (hartree)=  -0.32386
 Eigenvalues (hartree) for nkpt=   2  k points:
 kpt#   1, nband=  7, wtk=  0.25000, kpt=  0.2500  0.2500  0.2500 (reduced coord)
  -0.81296  -0.47940  -0.40280  -0.38621  -0.33010  -0.29020  -0.13508
 kpt#   2, nband=  7, wtk=  0.75000, kpt=  0.2500  0.5000  0.5000 (reduced coord)
  -0.81834  -0.48453  -0.45154  -0.37558  -0.35487  -0.31470  -0.09171
 Fermi (or HOMO) energy (eV) =  -2.49552   Average Vxc (eV)=  -8.81280
 Eigenvalues (   eV  ) for nkpt=   2  k points:
 kpt#   1, nband=  7, wtk=  0.25000, kpt=  0.2500  0.2500  0.2500 (reduced coord)
 -22.12165 -13.04502 -10.96066 -10.50918  -8.98258  -7.89688  -3.67561
 kpt#   2, nband=  7, wtk=  0.75000, kpt=  0.2500  0.5000  0.5000 (reduced coord)
 -22.26807 -13.18474 -12.28698 -10.22016  -9.65640  -8.56333  -2.49552

 ETOT  2  -33.753967030560    -1.609E+00 2.489E-02 4.539E+01

 prteigrs : about to open file t24o_EIG
 Fermi (or HOMO) energy (hartree) =  -0.31394   Average Vxc (hartree)=  -0.28713
 Eigenvalues (hartree) for nkpt=   2  k points:
 kpt#   1, nband=  7, wtk=  0.25000, kpt=  0.2500  0.2500  0.2500 (reduced coord)
  -0.76285  -0.70359  -0.70304  -0.70000  -0.32761  -0.31692  -0.31394
 kpt#   2, nband=  7, wtk=  0.75000, kpt=  0.2500  0.5000  0.5000 (reduced coord)
  -0.76125  -0.70569  -0.70382  -0.70077  -0.33349  -0.32170  -0.31985
 Fermi (or HOMO) energy (eV) =  -8.54262   Average Vxc (eV)=  -7.81322
 Eigenvalues (   eV  ) for nkpt=   2  k points:
 kpt#   1, nband=  7, wtk=  0.25000, kpt=  0.2500  0.2500  0.2500 (reduced coord)
 -20.75817 -19.14553 -19.13072 -19.04794  -8.91472  -8.62394  -8.54262
 kpt#   2, nband=  7, wtk=  0.75000, kpt=  0.2500  0.5000  0.5000 (reduced coord)
 -20.71471 -19.20279 -19.15196 -19.06899  -9.07466  -8.75393  -8.70365

 ETOT  3  -33.785495072958    -3.153E-02 1.352E-03 1.403E+01

 prteigrs : about to open file t24o_EIG
 Fermi (or HOMO) energy (hartree) =  -0.25039   Average Vxc (hartree)=  -0.29124
 Eigenvalues (hartree) for nkpt=   2  k points:
 kpt#   1, nband=  7, wtk=  0.25000, kpt=  0.2500  0.2500  0.2500 (reduced coord)
  -0.69091  -0.63230  -0.63226  -0.62814  -0.26682  -0.25070  -0.25039
 kpt#   2, nband=  7, wtk=  0.75000, kpt=  0.2500  0.5000  0.5000 (reduced coord)
  -0.68892  -0.63480  -0.63293  -0.62953  -0.27175  -0.25788  -0.25400
 Fermi (or HOMO) energy (eV) =  -6.81358   Average Vxc (eV)=  -7.92516
 Eigenvalues (   eV  ) for nkpt=   2  k points:
 kpt#   1, nband=  7, wtk=  0.25000, kpt=  0.2500  0.2500  0.2500 (reduced coord)
 -18.80050 -17.20568 -17.20468 -17.09255  -7.26045  -6.82191  -6.81358
 kpt#   2, nband=  7, wtk=  0.75000, kpt=  0.2500  0.5000  0.5000 (reduced coord)
 -18.74634 -17.27378 -17.22298 -17.13038  -7.39458  -7.01740  -6.91167

 ETOT  4  -33.795428297870    -9.933E-03 4.020E-04 1.149E+00

 prteigrs : about to open file t24o_EIG
 Fermi (or HOMO) energy (hartree) =  -0.22574   Average Vxc (hartree)=  -0.29732
 Eigenvalues (hartree) for nkpt=   2  k points:
 kpt#   1, nband=  7, wtk=  0.25000, kpt=  0.2500  0.2500  0.2500 (reduced coord)
  -0.65968  -0.58868  -0.58867  -0.58469  -0.24648  -0.22578  -0.22574
 kpt#   2, nband=  7, wtk=  0.75000, kpt=  0.2500  0.5000  0.5000 (reduced coord)
  -0.65716  -0.59180  -0.58961  -0.58643  -0.25154  -0.23436  -0.22953
 Fermi (or HOMO) energy (eV) =  -6.14283   Average Vxc (eV)=  -8.09048
 Eigenvalues (   eV  ) for nkpt=   2  k points:
 kpt#   1, nband=  7, wtk=  0.25000, kpt=  0.2500  0.2500  0.2500 (reduced coord)
 -17.95079 -16.01872 -16.01854 -15.91016  -6.70701  -6.14377  -6.14283
 kpt#   2, nband=  7, wtk=  0.75000, kpt=  0.2500  0.5000  0.5000 (reduced coord)
 -17.88222 -16.10379 -16.04417 -15.95752  -6.84467  -6.37735  -6.24596

 ETOT  5  -33.796399915139    -9.716E-04 6.499E-05 2.586E-01

 prteigrs : about to open file t24o_EIG
 Fermi (or HOMO) energy (hartree) =  -0.23759   Average Vxc (hartree)=  -0.29647
 Eigenvalues (hartree) for nkpt=   2  k points:
 kpt#   1, nband=  7, wtk=  0.25000, kpt=  0.2500  0.2500  0.2500 (reduced coord)
  -0.67258  -0.59141  -0.59141  -0.58820  -0.25752  -0.23760  -0.23759
 kpt#   2, nband=  7, wtk=  0.75000, kpt=  0.2500  0.5000  0.5000 (reduced coord)
  -0.67009  -0.59463  -0.59237  -0.59002  -0.26235  -0.24581  -0.24118
 Fermi (or HOMO) energy (eV) =  -6.46515   Average Vxc (eV)=  -8.06729
 Eigenvalues (   eV  ) for nkpt=   2  k points:
 kpt#   1, nband=  7, wtk=  0.25000, kpt=  0.2500  0.2500  0.2500 (reduced coord)
 -18.30178 -16.09313 -16.09311 -16.00579  -7.00736  -6.46542  -6.46515
 kpt#   2, nband=  7, wtk=  0.75000, kpt=  0.2500  0.5000  0.5000 (reduced coord)
 -18.23399 -16.18076 -16.11928 -16.05531  -7.13893  -6.68875  -6.56296

 ETOT  6  -33.796581599763    -1.817E-04 9.382E-06 6.775E-02

 prteigrs : about to open file t24o_EIG
 Fermi (or HOMO) energy (hartree) =  -0.23779   Average Vxc (hartree)=  -0.29645
 Eigenvalues (hartree) for nkpt=   2  k points:
 kpt#   1, nband=  7, wtk=  0.25000, kpt=  0.2500  0.2500  0.2500 (reduced coord)
  -0.67314  -0.58651  -0.58651  -0.58361  -0.25761  -0.23780  -0.23779
 kpt#   2, nband=  7, wtk=  0.75000, kpt=  0.2500  0.5000  0.5000 (reduced coord)
  -0.67064  -0.58982  -0.58750  -0.58548  -0.26235  -0.24591  -0.24133
 Fermi (or HOMO) energy (eV) =  -6.47070   Average Vxc (eV)=  -8.06669
 Eigenvalues (   eV  ) for nkpt=   2  k points:
 kpt#   1, nband=  7, wtk=  0.25000, kpt=  0.2500  0.2500  0.2500 (reduced coord)
 -18.31700 -15.95980 -15.95980 -15.88090  -7.00990  -6.47076  -6.47070
 kpt#   2, nband=  7, wtk=  0.75000, kpt=  0.2500  0.5000  0.5000 (reduced coord)
 -18.24908 -16.04979 -15.98673 -15.93159  -7.13902  -6.69143  -6.56688

 ETOT  7  -33.796607017645    -2.542E-05 2.216E-06 1.353E-02

 prteigrs : about to open file t24o_EIG
 Fermi (or HOMO) energy (hartree) =  -0.23718   Average Vxc (hartree)=  -0.29654
 Eigenvalues (hartree) for nkpt=   2  k points:
 kpt#   1, nband=  7, wtk=  0.25000, kpt=  0.2500  0.2500  0.2500 (reduced coord)
  -0.67257  -0.58420  -0.58420  -0.58138  -0.25711  -0.23718  -0.23718
 kpt#   2, nband=  7, wtk=  0.75000, kpt=  0.2500  0.5000  0.5000 (reduced coord)
  -0.67006  -0.58755  -0.58521  -0.58326  -0.26183  -0.24530  -0.24071
 Fermi (or HOMO) energy (eV) =  -6.45386   Average Vxc (eV)=  -8.06927
 Eigenvalues (   eV  ) for nkpt=   2  k points:
 kpt#   1, nband=  7, wtk=  0.25000, kpt=  0.2500  0.2500  0.2500 (reduced coord)
 -18.30165 -15.89690 -15.89690 -15.82020  -6.99624  -6.45387  -6.45386
 kpt#   2, nband=  7, wtk=  0.75000, kpt=  0.2500  0.5000  0.5000 (reduced coord)
 -18.23336 -15.98810 -15.92427 -15.87142  -7.12480  -6.67507  -6.55001

 ETOT  8  -33.796613018062    -6.000E-06 3.222E-07 4.101E-04

 prteigrs : about to open file t24o_EIG
 Fermi (or HOMO) energy (hartree) =  -0.23660   Average Vxc (hartree)=  -0.29667
 Eigenvalues (hartree) for nkpt=   2  k points:
 kpt#   1, nband=  7, wtk=  0.25000, kpt=  0.2500  0.2500  0.2500 (reduced coord)
  -0.67202  -0.58294  -0.58294  -0.58015  -0.25665  -0.23660  -0.23660
 kpt#   2, nband=  7, wtk=  0.75000, kpt=  0.2500  0.5000  0.5000 (reduced coord)
  -0.66950  -0.58632  -0.58395  -0.58204  -0.26137  -0.24476  -0.24014
 Fermi (or HOMO) energy (eV) =  -6.43826   Average Vxc (eV)=  -8.07268
 Eigenvalues (   eV  ) for nkpt=   2  k points:
 kpt#   1, nband=  7, wtk=  0.25000, kpt=  0.2500  0.2500  0.2500 (reduced coord)
 -18.28655 -15.86258 -15.86258 -15.78665  -6.98384  -6.43827  -6.43826
 kpt#   2, nband=  7, wtk=  0.75000, kpt=  0.2500  0.5000  0.5000 (reduced coord)
 -18.21796 -15.95446 -15.89020 -15.83818  -7.11225  -6.66031  -6.53463

 ETOT  9  -33.796613763921    -7.459E-07 1.013E-07 6.963E-05

 prteigrs : about to open file t24o_EIG
 Fermi (or HOMO) energy (hartree) =  -0.23664   Average Vxc (hartree)=  -0.29667
 Eigenvalues (hartree) for nkpt=   2  k points:
 kpt#   1, nband=  7, wtk=  0.25000, kpt=  0.2500  0.2500  0.2500 (reduced coord)
  -0.67206  -0.58313  -0.58313  -0.58033  -0.25670  -0.23664  -0.23664
 kpt#   2, nband=  7, wtk=  0.75000, kpt=  0.2500  0.5000  0.5000 (reduced coord)
  -0.66954  -0.58651  -0.58415  -0.58223  -0.26142  -0.24480  -0.24018
 Fermi (or HOMO) energy (eV) =  -6.43923   Average Vxc (eV)=  -8.07287
 Eigenvalues (   eV  ) for nkpt=   2  k points:
 kpt#   1, nband=  7, wtk=  0.25000, kpt=  0.2500  0.2500  0.2500 (reduced coord)
 -18.28761 -15.86782 -15.86782 -15.79168  -6.98516  -6.43924  -6.43923
 kpt#   2, nband=  7, wtk=  0.75000, kpt=  0.2500  0.5000  0.5000 (reduced coord)
 -18.21901 -15.95965 -15.89542 -15.84319  -7.11366  -6.66146  -6.53567

 ETOT 10  -33.796613887450    -1.235E-07 1.382E-08 1.606E-05

 prteigrs : about to open file t24o_EIG
 Fermi (or HOMO) energy (hartree) =  -0.23663   Average Vxc (hartree)=  -0.29668
 Eigenvalues (hartree) for nkpt=   2  k points:
 kpt#   1, nband=  7, wtk=  0.25000, kpt=  0.2500  0.2500  0.2500 (reduced coord)
  -0.67206  -0.58319  -0.58319  -0.58039  -0.25670  -0.23663  -0.23663
 kpt#   2, nband=  7, wtk=  0.75000, kpt=  0.2500  0.5000  0.5000 (reduced coord)
  -0.66954  -0.58657  -0.58421  -0.58229  -0.26142  -0.24480  -0.24018
 Fermi (or HOMO) energy (eV) =  -6.43913   Average Vxc (eV)=  -8.07297
 Eigenvalues (   eV  ) for nkpt=   2  k points:
 kpt#   1, nband=  7, wtk=  0.25000, kpt=  0.2500  0.2500  0.2500 (reduced coord)
 -18.28772 -15.86951 -15.86951 -15.79332  -6.98508  -6.43913  -6.43913
 kpt#   2, nband=  7, wtk=  0.75000, kpt=  0.2500  0.5000  0.5000 (reduced coord)
 -18.21913 -15.96131 -15.89710 -15.84481  -7.11361  -6.66139  -6.53558

 ETOT 11  -33.796613917115    -2.966E-08 4.960E-09 9.116E-07

 prteigrs : about to open file t24o_EIG
 Fermi (or HOMO) energy (hartree) =  -0.23663   Average Vxc (hartree)=  -0.29667
 Eigenvalues (hartree) for nkpt=   2  k points:
 kpt#   1, nband=  7, wtk=  0.25000, kpt=  0.2500  0.2500  0.2500 (reduced coord)
  -0.67207  -0.58325  -0.58325  -0.58044  -0.25670  -0.23663  -0.23663
 kpt#   2, nband=  7, wtk=  0.75000, kpt=  0.2500  0.5000  0.5000 (reduced coord)
  -0.66955  -0.58662  -0.58426  -0.58234  -0.26142  -0.24480  -0.24018
 Fermi (or HOMO) energy (eV) =  -6.43914   Average Vxc (eV)=  -8.07288
 Eigenvalues (   eV  ) for nkpt=   2  k points:
 kpt#   1, nband=  7, wtk=  0.25000, kpt=  0.2500  0.2500  0.2500 (reduced coord)
 -18.28789 -15.87090 -15.87090 -15.79467  -6.98510  -6.43914  -6.43914
 kpt#   2, nband=  7, wtk=  0.75000, kpt=  0.2500  0.5000  0.5000 (reduced coord)
 -18.21930 -15.96268 -15.89848 -15.84615  -7.11365  -6.66144  -6.53561

 ETOT 12  -33.796613921951    -4.835E-09 7.245E-10 6.385E-07

 prteigrs : about to open file t24o_EIG
 Fermi (or HOMO) energy (hartree) =  -0.23663   Average Vxc (hartree)=  -0.29667
 Eigenvalues (hartree) for nkpt=   2  k points:
 kpt#   1, nband=  7, wtk=  0.25000, kpt=  0.2500  0.2500  0.2500 (reduced coord)
  -0.67206  -0.58324  -0.58324  -0.58044  -0.25670  -0.23663  -0.23663
 kpt#   2, nband=  7, wtk=  0.75000, kpt=  0.2500  0.5000  0.5000 (reduced coord)
  -0.66954  -0.58661  -0.58425  -0.58233  -0.26142  -0.24480  -0.24018
 Fermi (or HOMO) energy (eV) =  -6.43909   Average Vxc (eV)=  -8.07291
 Eigenvalues (   eV  ) for nkpt=   2  k points:
 kpt#   1, nband=  7, wtk=  0.25000, kpt=  0.2500  0.2500  0.2500 (reduced coord)
 -18.28780 -15.87079 -15.87079 -15.79455  -6.98504  -6.43909  -6.43909
 kpt#   2, nband=  7, wtk=  0.75000, kpt=  0.2500  0.5000  0.5000 (reduced coord)
 -18.21921 -15.96256 -15.89836 -15.84603  -7.11359  -6.66138  -6.53555

 ETOT 13  -33.796613923268    -1.317E-09 2.515E-10 2.094E-07

 prteigrs : about to open file t24o_EIG
 Fermi (or HOMO) energy (hartree) =  -0.23664   Average Vxc (hartree)=  -0.29667
 Eigenvalues (hartree) for nkpt=   2  k points:
 kpt#   1, nband=  7, wtk=  0.25000, kpt=  0.2500  0.2500  0.2500 (reduced coord)
  -0.67207  -0.58324  -0.58324  -0.58044  -0.25670  -0.23664  -0.23664
 kpt#   2, nband=  7, wtk=  0.75000, kpt=  0.2500  0.5000  0.5000 (reduced coord)
  -0.66955  -0.58661  -0.58426  -0.58233  -0.26142  -0.24481  -0.24018
 Fermi (or HOMO) energy (eV) =  -6.43920   Average Vxc (eV)=  -8.07289
 Eigenvalues (   eV  ) for nkpt=   2  k points:
 kpt#   1, nband=  7, wtk=  0.25000, kpt=  0.2500  0.2500  0.2500 (reduced coord)
 -18.28792 -15.87082 -15.87082 -15.79459  -6.98514  -6.43920  -6.43920
 kpt#   2, nband=  7, wtk=  0.75000, kpt=  0.2500  0.5000  0.5000 (reduced coord)
 -18.21933 -15.96260 -15.89840 -15.84607  -7.11369  -6.66149  -6.53566

 ETOT 14  -33.796613923583    -3.153E-10 4.253E-11 3.556E-08

 prteigrs : about to open file t24o_EIG
 Fermi (or HOMO) energy (hartree) =  -0.23664   Average Vxc (hartree)=  -0.29667
 Eigenvalues (hartree) for nkpt=   2  k points:
 kpt#   1, nband=  7, wtk=  0.25000, kpt=  0.2500  0.2500  0.2500 (reduced coord)
  -0.67207  -0.58324  -0.58324  -0.58044  -0.25670  -0.23664  -0.23664
 kpt#   2, nband=  7, wtk=  0.75000, kpt=  0.2500  0.5000  0.5000 (reduced coord)
  -0.66955  -0.58661  -0.58425  -0.58233  -0.26143  -0.24481  -0.24018
 Fermi (or HOMO) energy (eV) =  -6.43926   Average Vxc (eV)=  -8.07289
 Eigenvalues (   eV  ) for nkpt=   2  k points:
 kpt#   1, nband=  7, wtk=  0.25000, kpt=  0.2500  0.2500  0.2500 (reduced coord)
 -18.28796 -15.87079 -15.87079 -15.79456  -6.98518  -6.43926  -6.43926
 kpt#   2, nband=  7, wtk=  0.75000, kpt=  0.2500  0.5000  0.5000 (reduced coord)
 -18.21937 -15.96256 -15.89837 -15.84604  -7.11374  -6.66154  -6.53572

 ETOT 15  -33.796613923654    -7.054E-11 1.374E-11 2.126E-09

 prteigrs : about to open file t24o_EIG
 Fermi (or HOMO) energy (hartree) =  -0.23664   Average Vxc (hartree)=  -0.29667
 Eigenvalues (hartree) for nkpt=   2  k points:
 kpt#   1, nband=  7, wtk=  0.25000, kpt=  0.2500  0.2500  0.2500 (reduced coord)
  -0.67207  -0.58324  -0.58324  -0.58044  -0.25670  -0.23664  -0.23664
 kpt#   2, nband=  7, wtk=  0.75000, kpt=  0.2500  0.5000  0.5000 (reduced coord)
  -0.66955  -0.58661  -0.58425  -0.58233  -0.26143  -0.24481  -0.24019
 Fermi (or HOMO) energy (eV) =  -6.43931   Average Vxc (eV)=  -8.07289
 Eigenvalues (   eV  ) for nkpt=   2  k points:
 kpt#   1, nband=  7, wtk=  0.25000, kpt=  0.2500  0.2500  0.2500 (reduced coord)
 -18.28801 -15.87079 -15.87079 -15.79456  -6.98523  -6.43931  -6.43931
 kpt#   2, nband=  7, wtk=  0.75000, kpt=  0.2500  0.5000  0.5000 (reduced coord)
 -18.21942 -15.96256 -15.89836 -15.84604  -7.11378  -6.66159  -6.53577

 ETOT 16  -33.796613923670    -1.572E-11 2.723E-12 4.435E-10

 prteigrs : about to open file t24o_EIG
 Fermi (or HOMO) energy (hartree) =  -0.23664   Average Vxc (hartree)=  -0.29667
 Eigenvalues (hartree) for nkpt=   2  k points:
 kpt#   1, nband=  7, wtk=  0.25000, kpt=  0.2500  0.2500  0.2500 (reduced coord)
  -0.67207  -0.58324  -0.58324  -0.58044  -0.25670  -0.23664  -0.23664
 kpt#   2, nband=  7, wtk=  0.75000, kpt=  0.2500  0.5000  0.5000 (reduced coord)
  -0.66955  -0.58661  -0.58425  -0.58233  -0.26143  -0.24481  -0.24018
 Fermi (or HOMO) energy (eV) =  -6.43929   Average Vxc (eV)=  -8.07289
 Eigenvalues (   eV  ) for nkpt=   2  k points:
 kpt#   1, nband=  7, wtk=  0.25000, kpt=  0.2500  0.2500  0.2500 (reduced coord)
 -18.28799 -15.87078 -15.87078 -15.79455  -6.98521  -6.43929  -6.43929
 kpt#   2, nband=  7, wtk=  0.75000, kpt=  0.2500  0.5000  0.5000 (reduced coord)
 -18.21940 -15.96255 -15.89836 -15.84604  -7.11376  -6.66157  -6.53575

 ETOT 17  -33.796613923674    -4.064E-12 7.573E-13 8.802E-11

 prteigrs : about to open file t24o_EIG
 Fermi (or HOMO) energy (hartree) =  -0.23664   Average Vxc (hartree)=  -0.29667
 Eigenvalues (hartree) for nkpt=   2  k points:
 kpt#   1, nband=  7, wtk=  0.25000, kpt=  0.2500  0.2500  0.2500 (reduced coord)
  -0.67207  -0.58324  -0.58324  -0.58044  -0.25670  -0.23664  -0.23664
 kpt#   2, nband=  7, wtk=  0.75000, kpt=  0.2500  0.5000  0.5000 (reduced coord)
  -0.66955  -0.58661  -0.58425  -0.58233  -0.26143  -0.24481  -0.24018
 Fermi (or HOMO) energy (eV) =  -6.43930   Average Vxc (eV)=  -8.07289
 Eigenvalues (   eV  ) for nkpt=   2  k points:
 kpt#   1, nband=  7, wtk=  0.25000, kpt=  0.2500  0.2500  0.2500 (reduced coord)
 -18.28800 -15.87078 -15.87078 -15.79456  -6.98522  -6.43930  -6.43930
 kpt#   2, nband=  7, wtk=  0.75000, kpt=  0.2500  0.5000  0.5000 (reduced coord)
 -18.21941 -15.96256 -15.89836 -15.84604  -7.11377  -6.66158  -6.53576

 ETOT 18  -33.796613923675    -1.293E-12 1.652E-13 6.145E-11

 prteigrs : about to open file t24o_EIG
 Fermi (or HOMO) energy (hartree) =  -0.23664   Average Vxc (hartree)=  -0.29667
 Eigenvalues (hartree) for nkpt=   2  k points:
 kpt#   1, nband=  7, wtk=  0.25000, kpt=  0.2500  0.2500  0.2500 (reduced coord)
  -0.67207  -0.58324  -0.58324  -0.58044  -0.25670  -0.23664  -0.23664
 kpt#   2, nband=  7, wtk=  0.75000, kpt=  0.2500  0.5000  0.5000 (reduced coord)
  -0.66955  -0.58661  -0.58425  -0.58233  -0.26143  -0.24481  -0.24018
 Fermi (or HOMO) energy (eV) =  -6.43930   Average Vxc (eV)=  -8.07289
 Eigenvalues (   eV  ) for nkpt=   2  k points:
 kpt#   1, nband=  7, wtk=  0.25000, kpt=  0.2500  0.2500  0.2500 (reduced coord)
 -18.28799 -15.87078 -15.87078 -15.79456  -6.98522  -6.43930  -6.43930
 kpt#   2, nband=  7, wtk=  0.75000, kpt=  0.2500  0.5000  0.5000 (reduced coord)
 -18.21941 -15.96256 -15.89836 -15.84604  -7.11377  -6.66158  -6.53575

 ETOT 19  -33.796613923675     1.563E-13 4.303E-14 2.146E-11

 prteigrs : about to open file t24o_EIG
 Fermi (or HOMO) energy (hartree) =  -0.23664   Average Vxc (hartree)=  -0.29667
 Eigenvalues (hartree) for nkpt=   2  k points:
 kpt#   1, nband=  7, wtk=  0.25000, kpt=  0.2500  0.2500  0.2500 (reduced coord)
  -0.67207  -0.58324  -0.58324  -0.58044  -0.25670  -0.23664  -0.23664
 kpt#   2, nband=  7, wtk=  0.75000, kpt=  0.2500  0.5000  0.5000 (reduced coord)
  -0.66955  -0.58661  -0.58425  -0.58233  -0.26143  -0.24481  -0.24018
 Fermi (or HOMO) energy (eV) =  -6.43930   Average Vxc (eV)=  -8.07289
 Eigenvalues (   eV  ) for nkpt=   2  k points:
 kpt#   1, nband=  7, wtk=  0.25000, kpt=  0.2500  0.2500  0.2500 (reduced coord)
 -18.28800 -15.87078 -15.87078 -15.79456  -6.98522  -6.43930  -6.43930
 kpt#   2, nband=  7, wtk=  0.75000, kpt=  0.2500  0.5000  0.5000 (reduced coord)
 -18.21941 -15.96256 -15.89836 -15.84604  -7.11377  -6.66158  -6.53576

 ETOT 20  -33.796613923675    -1.421E-14 1.009E-14 1.218E-11

 prteigrs : about to open file t24o_EIG
 Fermi (or HOMO) energy (hartree) =  -0.23664   Average Vxc (hartree)=  -0.29667
 Eigenvalues (hartree) for nkpt=   2  k points:
 kpt#   1, nband=  7, wtk=  0.25000, kpt=  0.2500  0.2500  0.2500 (reduced coord)
  -0.67207  -0.58324  -0.58324  -0.58044  -0.25670  -0.23664  -0.23664
 kpt#   2, nband=  7, wtk=  0.75000, kpt=  0.2500  0.5000  0.5000 (reduced coord)
  -0.66955  -0.58661  -0.58425  -0.58233  -0.26143  -0.24481  -0.24018
 Fermi (or HOMO) energy (eV) =  -6.43930   Average Vxc (eV)=  -8.07289
 Eigenvalues (   eV  ) for nkpt=   2  k points:
 kpt#   1, nband=  7, wtk=  0.25000, kpt=  0.2500  0.2500  0.2500 (reduced coord)
 -18.28799 -15.87078 -15.87078 -15.79456  -6.98522  -6.43930  -6.43930
 kpt#   2, nband=  7, wtk=  0.75000, kpt=  0.2500  0.5000  0.5000 (reduced coord)
 -18.21941 -15.96256 -15.89836 -15.84604  -7.11377  -6.66158  -6.53575

 Cartesian components of stress tensor (hartree/bohr^3)
  sigma(1 1)=  3.86330808E-04  sigma(3 2)=  0.00000000E+00
  sigma(2 2)=  3.86330808E-04  sigma(3 1)=  0.00000000E+00
  sigma(3 3)=  3.86330808E-04  sigma(2 1)=  0.00000000E+00


 scprqt:  WARNING -
  nstep=   20 was not enough SCF cycles to converge;
  maximum residual=  1.009E-14 exceeds tolwfr=  1.000E-15

================================================================================

 ----iterations are completed or convergence reached----

 Mean square residual over all n,k,spin=   3.6008E-15; max=  1.0085E-14
   0.2500  0.2500  0.2500    1  8.46900E-15 kpt; spin; max resid(k); each band:
  8.47E-15 9.29E-16 2.87E-16 9.63E-16 6.52E-15 1.52E-15 2.19E-15
   0.2500  0.5000  0.5000    1  1.00855E-14 kpt; spin; max resid(k); each band:
  7.48E-15 5.27E-16 2.46E-16 1.57E-16 9.57E-15 1.01E-14 1.47E-15
 reduced coordinates (array xred) for    2 atoms
       0.000000000000      0.000000000000      0.000000000000
       0.500000000000      0.500000000000      0.500000000000
 rms dE/dt=  0.0000E+00; max dE/dt=  0.0000E+00; dE/dt below (all hartree)
    1       0.000000000000      0.000000000000      0.000000000000
    2       0.000000000000      0.000000000000      0.000000000000

 cartesian coordinates (angstrom) at end:
    1      0.00000000000000     0.00000000000000     0.00000000000000
    2      3.14595850506755     3.14595850506755     3.14595850506755

 cartesian forces (hartree/bohr) at end:
    1     -0.00000000000000    -0.00000000000000    -0.00000000000000
    2     -0.00000000000000    -0.00000000000000    -0.00000000000000
 frms,max,avg= 0.0000000E+00 0.0000000E+00   0.000E+00  0.000E+00  0.000E+00 h/b

 cartesian forces (eV/Angstrom) at end:
    1     -0.00000000000000    -0.00000000000000    -0.00000000000000
    2     -0.00000000000000    -0.00000000000000    -0.00000000000000
 frms,max,avg= 0.0000000E+00 0.0000000E+00   0.000E+00  0.000E+00  0.000E+00 e/A
 length scales= 11.890000000000 11.890000000000 11.890000000000 bohr
              =  6.291917010135  6.291917010135  6.291917010135 angstroms
 prteigrs : about to open file t24o_EIG
 Fermi (or HOMO) energy (hartree) =  -0.23664   Average Vxc (hartree)=  -0.29667
 Eigenvalues (hartree) for nkpt=   2  k points:
 kpt#   1, nband=  7, wtk=  0.25000, kpt=  0.2500  0.2500  0.2500 (reduced coord)
  -0.67207  -0.58324  -0.58324  -0.58044  -0.25670  -0.23664  -0.23664
 kpt#   2, nband=  7, wtk=  0.75000, kpt=  0.2500  0.5000  0.5000 (reduced coord)
  -0.66955  -0.58661  -0.58425  -0.58233  -0.26143  -0.24481  -0.24018
 Fermi (or HOMO) energy (eV) =  -6.43930   Average Vxc (eV)=  -8.07289
 Eigenvalues (   eV  ) for nkpt=   2  k points:
 kpt#   1, nband=  7, wtk=  0.25000, kpt=  0.2500  0.2500  0.2500 (reduced coord)
 -18.28799 -15.87078 -15.87078 -15.79456  -6.98522  -6.43930  -6.43930
 kpt#   2, nband=  7, wtk=  0.75000, kpt=  0.2500  0.5000  0.5000 (reduced coord)
 -18.21941 -15.96256 -15.89836 -15.84604  -7.11377  -6.66158  -6.53575
 Total charge density [el/Bohr^3]
,     Maximum=    3.8549E-01  at reduced coord.    0.0833    0.9167    0.9583
,Next maximum=    3.8549E-01  at reduced coord.    0.0417    0.9167    0.9583
,     Minimum=    2.8754E-05  at reduced coord.    0.0000    0.0000    0.0000
,Next minimum=    9.5964E-04  at reduced coord.    0.7500    0.7500    0.7500
,  Integrated=    1.4000E+01

--------------------------------------------------------------------------------
 Components of total free energy (in Hartree) :

    Kinetic energy  =  1.41782840372891E+01
    Hartree energy  =  6.57316545048701E+00
    XC energy       = -9.08943283159511E+00
    Ewald energy    = -2.33856310335660E+01
    PspCore energy  =  3.40160135824191E+00
    Loc. psp. energy= -1.30943731716335E+01
    NL   psp  energy= -1.23802277328981E+01
    >>>>>>>>> Etotal= -3.37966139236748E+01

 Other information on the energy :
    Total energy(eV)= -9.19652634645335E+02 ; Band energy (Ha)=  -6.3282404216E+00
--------------------------------------------------------------------------------

          ===> extra information on forces <===
 ewald contribution to reduced grads
    1       0.000000000000      0.000000000000      0.000000000000
    2      -0.000000000000     -0.000000000000     -0.000000000000
 nonlocal contribution to red. grads
    1       0.000000000000      0.000000000000      0.000000000000
    2       0.000000000000      0.000000000000      0.000000000000
 local psp contribution to red. grads
    1      -0.000000000000     -0.000000000000     -0.000000000000
    2      -0.000000000000     -0.000000000000     -0.000000000000
 core charge xc contribution to reduced grads
    1       0.000000000000      0.000000000000     -0.000000000000
    2       0.000000000000      0.000000000000      0.000000000000
 residual contribution to red. grads
    1      -0.000000000000      0.000000000000     -0.000000000000
    2       0.000000000000      0.000000000000      0.000000000000

 Cartesian components of stress tensor (hartree/bohr^3)
  sigma(1 1)=  3.86330808E-04  sigma(3 2)=  0.00000000E+00
  sigma(2 2)=  3.86330808E-04  sigma(3 1)=  0.00000000E+00
  sigma(3 3)=  3.86330808E-04  sigma(2 1)=  0.00000000E+00

-Cartesian components of stress tensor (GPa)         [Pressure= -1.1366E+01 GPa]
- sigma(1 1)=  1.13662429E+01  sigma(3 2)=  0.00000000E+00
- sigma(2 2)=  1.13662429E+01  sigma(3 1)=  0.00000000E+00
- sigma(3 3)=  1.13662429E+01  sigma(2 1)=  0.00000000E+00

== END DATASET(S) ==============================================================
================================================================================
  
 -outvars: echo values of variables after computation  --------
            acell      1.1890000000E+01  1.1890000000E+01  1.1890000000E+01 Bohr
              amu      3.90983000E+01  3.54527000E+01
           diemac      1.00000000E+00
           diemix      3.33333333E-01
             ecut      1.00000000E+01 Hartree
           enunit           2
           etotal     -3.3796613924E+01
            fcart     -0.0000000000E+00 -0.0000000000E+00 -0.0000000000E+00
                      -0.0000000000E+00 -0.0000000000E+00 -0.0000000000E+00
-          fftalg         112
            intxc           1
             iscf           3
              kpt      1.00000000E+00  1.00000000E+00  1.00000000E+00
                       1.00000000E+00  2.00000000E+00  2.00000000E+00
           kptnrm      4.00000000E+00
           kptopt           0
P           mkmem           2
            natom           2
            nband           7
            ngfft          24      24      24
             nkpt           2
            nline           2
            nstep          20
             nsym          24
           ntypat           2
              occ      2.000000  2.000000  2.000000  2.000000  2.000000  2.000000
                       2.000000
           occopt           0
           prtvol          10
            rprim      0.0000000000E+00  5.0000000000E-01  5.0000000000E-01
                       5.0000000000E-01  0.0000000000E+00  5.0000000000E-01
                       5.0000000000E-01  5.0000000000E-01  0.0000000000E+00
          spgroup         216
           strten      3.8633080804E-04  3.8633080804E-04  3.8633080804E-04
                       0.0000000000E+00  0.0000000000E+00  0.0000000000E+00
           symrel      1  0  0   0  1  0   0  0  1       0  1 -1   1  0 -1   0  0 -1
                       0 -1  1   0 -1  0   1 -1  0      -1  0  0  -1  0  1  -1  1  0
                       0  1  0   0  0  1   1  0  0       1  0 -1   0  0 -1   0  1 -1
                       0 -1  0   1 -1  0   0 -1  1      -1  0  1  -1  1  0  -1  0  0
                       0  0  1   1  0  0   0  1  0       0  0 -1   0  1 -1   1  0 -1
                       1 -1  0   0 -1  1   0 -1  0      -1  1  0  -1  0  0  -1  0  1
                       1  0 -1   0  1 -1   0  0 -1       0  1  0   1  0  0   0  0  1
                      -1  0  1  -1  0  0  -1  1  0       0 -1  0   0 -1  1   1 -1  0
                      -1  1  0  -1  0  1  -1  0  0       1 -1  0   0 -1  0   0 -1  1
                       0  0 -1   1  0 -1   0  1 -1       0  0  1   0  1  0   1  0  0
                       0 -1  1   1 -1  0   0 -1  0      -1  0  0  -1  1  0  -1  0  1
                       1  0  0   0  0  1   0  1  0       0  1 -1   0  0 -1   1  0 -1
           timopt          -1
           tolwfr      1.00000000E-15
            typat      1  2
              wtk        0.25000    0.75000
           xangst      0.0000000000E+00  0.0000000000E+00  0.0000000000E+00
                       3.1459585051E+00  3.1459585051E+00  3.1459585051E+00
            xcart      0.0000000000E+00  0.0000000000E+00  0.0000000000E+00
                       5.9450000000E+00  5.9450000000E+00  5.9450000000E+00
             xred      0.0000000000E+00  0.0000000000E+00  0.0000000000E+00
                       5.0000000000E-01  5.0000000000E-01  5.0000000000E-01
            znucl       19.00000   17.00000

================================================================================

 Test the timer : 
  a combined call timab(*,1,tsec) + timab(*,2,tsec) is 
- CPU time =    6.9369E-07 sec,    Wall time =    6.9343E-07 sec

- Total cpu        time (s,m,h):          1.2        0.02      0.000
- Total wall clock time (s,m,h):          1.2        0.02      0.000
-
- For major independent code sections, cpu and wall times (sec),
-  as well as % of the time and number of calls for node 0-
-<BEGIN_TIMER mpi_nprocs = 1, omp_nthreads = 1, mpi_rank = 0>
- cpu_time =            1.2, wall_time =            1.2
-
- routine                        cpu     %       wall     %      number of calls  Gflops 
-                                                                  (-1=no count)
- fourwf%(pot)                   0.312  25.5      0.299  24.4            895      -1.00    
- pspini                         0.268  21.9      0.268  21.9              1      -1.00    
- timing timab                   0.135  11.0      0.135  11.0             14      -1.00    
- invars2                        0.122  10.0      0.122  10.0              1      -1.00    
- nonlop(apply)                  0.071   5.8      0.064   5.2            895      -1.00    
- fourwf%(den)                   0.054   4.4      0.052   4.3            280      -1.00    
- xc:pot/=fourdp                 0.049   4.0      0.043   3.5             21      -1.00    
- abinit(2)                      0.029   2.4      0.029   2.3              1      -1.00    
- fourdp                         0.029   2.4      0.035   2.9            147      -1.00    
- projbd                         0.022   1.8      0.022   1.8           1174      -1.00    
- getghc-other                   0.009   0.7      0.011   0.9             -1      -1.00    
- symrhg(no FFT)                 0.008   0.7      0.012   1.0             20      -1.00    
- vtowfk(ssdiag)                 0.008   0.7      0.012   1.0             -1      -1.00    
- scfcv-scprqt                   0.007   0.6      0.007   0.6             20      -1.00    
- forces                         0.005   0.4      0.004   0.4              1      -1.00    
- nonlop(forstr)                 0.003   0.2      0.003   0.2             14      -1.00    
- stress                         0.003   0.2      0.003   0.2              1      -1.00    
- vtowfk(contrib)                0.002   0.2      0.004   0.3             40      -1.00    
- setsym                         0.001   0.1      0.001   0.1              1      -1.00    
- ewald                          0.001   0.1      0.001   0.1              1      -1.00    
- mkcore                         0.001   0.1      0.002   0.1              3      -1.00    
- kpgsph                         0.000   0.0      0.000   0.0              4      -1.00    
- vtowfk  (1)                    0.000   0.0      0.001   0.1             40      -1.00    
- ewald2 (+vdw_dftd2)            0.000   0.0      0.001   0.1              1      -1.00    
- status                         0.000   0.0      0.000   0.0             41      -1.00    
- vtowfk3(contrib)               0.000   0.0      0.000   0.0             -1      -1.00    
- cgwf3-O(npw)                   0.000   0.0      0.000   0.0             -1      -1.00    
- inwffil(excl. calls)           0.000   0.0      0.000   0.0              1      -1.00    
- newkpt(excl. rwwf   )          0.000   0.0      0.001   0.0             -1      -1.00    
- vtorho(MPI)                    0.000   0.0      0.000   0.0             20      -1.00    
- others (75)                    0.000   0.0      0.000   0.0             -1      -1.00    
-<END_TIMER>
-
- subtotal                       1.139  93.0      1.131  92.4

- For major independent code sections, cpu and wall times (sec),
- as well as % of the total time and number of calls 

-<BEGIN_TIMER mpi_nprocs = 1, omp_nthreads = 1, mpi_rank = world>
- cpu_time =           1.2, wall_time =           1.2
-
- routine                         cpu     %       wall     %      number of calls Gflops 
-                                                                  (-1=no count)
- fourwf%(pot)                   0.312  25.5      0.299  24.4            895      -1.00    
- pspini                         0.268  21.9      0.268  21.9              1      -1.00    
- timing timab                   0.135  11.0      0.135  11.0             14      -1.00    
- invars2                        0.122  10.0      0.122  10.0              1      -1.00    
- nonlop(apply)                  0.071   5.8      0.064   5.2            895      -1.00    
- fourwf%(den)                   0.054   4.4      0.052   4.3            280      -1.00    
- xc:pot/=fourdp                 0.049   4.0      0.043   3.5             21      -1.00    
- abinit(2)                      0.029   2.4      0.029   2.3              1      -1.00    
- fourdp                         0.029   2.4      0.035   2.9            147      -1.00    
- projbd                         0.022   1.8      0.022   1.8           1174      -1.00    
- getghc-other                   0.009   0.7      0.011   0.9             -1      -1.00    
- symrhg(no FFT)                 0.008   0.7      0.012   1.0             20      -1.00    
- vtowfk(ssdiag)                 0.008   0.7      0.012   1.0             -1      -1.00    
- scfcv-scprqt                   0.007   0.6      0.007   0.6             20      -1.00    
- forces                         0.005   0.4      0.004   0.4              1      -1.00    
- nonlop(forstr)                 0.003   0.2      0.003   0.2             14      -1.00    
- stress                         0.003   0.2      0.003   0.2              1      -1.00    
- vtowfk(contrib)                0.002   0.2      0.004   0.3             40      -1.00    
- setsym                         0.001   0.1      0.001   0.1              1      -1.00    
- ewald                          0.001   0.1      0.001   0.1              1      -1.00    
- mkcore                         0.001   0.1      0.002   0.1              3      -1.00    
- kpgsph                         0.000   0.0      0.000   0.0              4      -1.00    
- vtowfk  (1)                    0.000   0.0      0.001   0.1             40      -1.00    
- ewald2 (+vdw_dftd2)            0.000   0.0      0.001   0.1              1      -1.00    
- status                         0.000   0.0      0.000   0.0             41      -1.00    
- vtowfk3(contrib)               0.000   0.0      0.000   0.0             -1      -1.00    
- cgwf3-O(npw)                   0.000   0.0      0.000   0.0             -1      -1.00    
- inwffil(excl. calls)           0.000   0.0      0.000   0.0              1      -1.00    
- newkpt(excl. rwwf   )          0.000   0.0      0.001   0.0             -1      -1.00    
- vtorho(MPI)                    0.000   0.0      0.000   0.0             20      -1.00    
- others (75)                    0.000   0.0      0.000   0.0             -1      -1.00    
-<END_TIMER>

- subtotal                       1.139  93.0      1.131  92.4

 Partitioning of abinit
- abinit                         1.225 100.0      1.225 100.0              1
 
- abinit(1)                      0.010   0.8      0.010   0.8              1
- abinit(2)                      0.029   2.4      0.029   2.3              1
- indefo+macroin+invars2m        0.122  10.0      0.122  10.0              1
- abinit(4)                      0.011   0.9      0.011   0.9              1
- abinit(5)                      0.006   0.5      0.006   0.5              1
- driver                         0.909  74.2      0.909  74.2              1
- abinit(6)                      0.003   0.2      0.003   0.2              1
- timing timab                   0.135  11.0      0.135  11.0             14

- subtotal                       1.225 100.0      1.225 100.0

 Partitioning of driver
- driver                         0.909  74.2      0.909  74.2              1
 
- gstateimg                      0.909  74.2      0.909  74.2              1

- subtotal                       0.909  74.2      0.909  74.2

 Partitioning of gstateimg+gstate
- gstateimg                      0.909  74.2      0.909  74.2              1
 
- gstate->kpgsph                 0.002   0.2      0.002   0.2              2
- gstate(pspini)                 0.268  21.9      0.268  21.9              1
- gstate  (2)                    0.002   0.2      0.001   0.1              1
- gstate(...scfcv)               0.635  51.8      0.635  51.9              1
- gstate  (3)                    0.002   0.2      0.002   0.1              1

- subtotal                       0.909  74.2      0.909  74.2

 Partitioning of scfcv
- scfcv                          0.635  51.8      0.635  51.9              1
 
- scfcv(iniloop, setvtr  )       0.006   0.5      0.006   0.5             20
- scfcv(vtorho(f))               0.531  43.3      0.533  43.5             20
- scfcv-scprqt                   0.007   0.6      0.007   0.6             20
- scfcv(rhotov)                  0.071   5.8      0.070   5.7             20
- scfcv(mix pot)                 0.008   0.7      0.006   0.5             20
- scfcv(afterscfloop)            0.011   0.9      0.011   0.9              1
- scfcv(outscfcv)                0.001   0.1      0.001   0.1              1

- subtotal                       0.635  51.8      0.635  51.9

 Partitioning of rhotov
- rhotov                         0.071   5.8      0.070   5.7             20
 
- rhotov(rhohxc)                 0.066   5.4      0.067   5.5             20
- rhotov(dotprod_vn)             0.000   0.0      0.000   0.0             20
- rhotov(other)                  0.003   0.2      0.003   0.2             20

- subtotal                       0.071   5.8      0.070   5.7

 Partitioning of vtorho
- vtorho                         0.531  43.3      0.533  43.5             20
 
- vtorho(bef. spin loop)         0.000   0.0      0.001   0.1             20
- vtorho(bef. kpt  loop)         0.000   0.0      0.001   0.1             20
- vtorho(bef. vtowfk)            0.006   0.5      0.006   0.5             40
- vtowfk                         0.501  40.9      0.501  40.9             40
- vtorho(aft. kpt loop)          0.000   0.0      0.000   0.0             20
- vtorho(MPI)                    0.000   0.0      0.000   0.0             20
- vtorho(mkrho 2)                0.024   2.0      0.024   2.0             40

- subtotal                       0.531  43.3      0.533  43.5

 Partitioning of vtowfk
- vtowfk                         0.501  40.9      0.501  40.9             40
 
- vtowfk  (1)                    0.000   0.0      0.001   0.1             40
- cgwf                           0.437  35.7      0.432  35.2             44
- vtowfk(subdiago)               0.002   0.2      0.004   0.4             44
- vtowfk(pw_orthon)              0.004   0.3      0.005   0.4             44
- vtowfk(2)                      0.002   0.2      0.003   0.2             -1
- fourwf%vtowfk                  0.054   4.4      0.052   4.3            280
- vtowfk(3)                      0.002   0.2      0.004   0.3             -1

- subtotal                       0.501  40.9      0.501  40.9

 Partitioning of cgwf
- cgwf                           0.437  35.7      0.432  35.2             44
 
- getghc%cgwf                    0.392  32.0      0.374  30.5            895
- cgwf-O(npw)                    0.023   1.9      0.036   2.9             -1
- projbd%cgwf                    0.022   1.8      0.022   1.8           1174

- subtotal                       0.437  35.7      0.432  35.2

 Partitioning of getghc
- getghc                         0.392  32.0      0.374  30.5            895
 
- fourwf%getghc                  0.312  25.5      0.299  24.4            895
- nonlop%getghc                  0.071   5.8      0.064   5.2            895
- getghc-other                   0.009   0.7      0.011   0.9             -1

- subtotal                       0.392  32.0      0.374  30.5

 Partitioning of fourwf (upwards partitioning)
- fourwf                         0.366  29.9      0.352  28.7           1175
 
- fourwf%getghc                  0.312  25.5      0.299  24.4            895
- fourwf%vtowfk                  0.054   4.4      0.052   4.3            280

- subtotal                       0.366  29.9      0.352  28.7

 Partitioning of inwffil
- inwffil                        0.000   0.0      0.001   0.0              1
 
- inwffil(call newkpt)           0.000   0.0      0.001   0.0              1

- subtotal                       0.000   0.0      0.001   0.0

 Partitioning of newkpt
- newkpt                         0.000   0.0      0.001   0.0              1
 
- newkpt(call wfconv)            0.000   0.0      0.000   0.0              2

- subtotal                       0.000   0.0      0.001   0.0

 Partitioning of newvtr
- newvtr                         0.008   0.7      0.006   0.5             20
 
- newvtr(before selection)       0.000   0.0      0.001   0.0             20
- newvtr(call prcref_PMA)        0.002   0.2      0.001   0.1             20
- newvtr(aft. prcref_PMA)        0.006   0.5      0.003   0.2             20
- newvtr(mean potential)         0.000   0.0      0.001   0.0             20
- (other)                        0.000   0.0      0.001   0.1             -1

- subtotal                       0.008   0.7      0.006   0.5

 Partitioning of  fourdp (upwards partitioning)
- fourdp                         0.029   2.4      0.035   2.9            147
 
- fourdp%(other)                 0.029   2.4      0.035   2.9            147

- subtotal                       0.029   2.4      0.035   2.9

 Partitioning of afterscfloop
- afterscfloop                   0.011   0.9      0.011   0.9              1
 
- afterscfloop(forstr)           0.011   0.9      0.011   0.9              1

- subtotal                       0.011   0.9      0.011   0.9

 Partitioning of forstr
- forstr                         0.011   0.9      0.011   0.9              1
 
- forstr(forstrnps)              0.003   0.2      0.003   0.3              1
- forstr(forces)                 0.005   0.4      0.004   0.4              1
- forstr(stress)                 0.003   0.2      0.003   0.2              1

- subtotal                       0.011   0.9      0.011   0.9

 Partitioning of forstrnps
- forstrnps                      0.003   0.2      0.003   0.3              1
 
- forstrnps(bef.loop band)       0.000   0.0      0.000   0.0              2
- forstrnps(nonlop+prep_ba       0.003   0.2      0.003   0.2             14

- subtotal                       0.003   0.2      0.003   0.3

 Partitioning of outscfcv
- outscfcv                       0.001   0.1      0.001   0.1              1
 
- outscfcv([PAW]prtden)          0.000   0.0      0.000   0.0              1

- subtotal                       0.000   0.0      0.001   0.0
-
-Synchronisation (=leave_test) and MPI calls 
- communic.MPI                   0.001   0.1      0.001   0.1           1897
-
- forstrnps:synchr               0.000   0.0      0.000   0.0              2
-
- subtotal                       0.000   0.0      0.000   0.0

 Additional information
- timana(1)                      0.000   0.0      0.000   0.0              1
- total timab                    0.140  11.5      0.140  11.5         202353
- fourwf                         0.366  29.9      0.352  28.7           1175
- mklocl(2)                      0.001   0.1      0.001   0.1              1
- status                         0.000   0.0      0.000   0.0             41
- nonlop(forstr)                 0.003   0.2      0.003   0.2             14
- nonlop(total)                  0.074   6.0      0.067   5.5            909
- xc:fourdp                      0.014   1.1      0.020   1.7             84


 Detailed analysis of some time consuming routines 
                                  tcpu    ncalls  tcpu/ncalls    ndata tcpu/ncalls/ndata
                                 (sec)                (msec)              (microsec)
- fourwf%(pot)                   0.312       895       0.349     27648       0.013
- fourwf%(den)                   0.054       280       0.193     13824       0.014
- fourdp                         0.029       147       0.197     13824       0.014
- nonlop(apply)                  0.071       895       0.079      1268       0.063
- nonlop(forces)                 0.000         0
- nonlop(forstr)                 0.003        14       0.214      1268       0.169
- projbd                         0.022      1174       0.019      4438       0.004
- xc:pot/=fourdp                 0.049        21       2.333     13824       0.169

================================================================================

 Suggested references for the acknowledgment of ABINIT usage.

 The users of ABINIT have little formal obligations with respect to the ABINIT group
 (those specified in the GNU General Public License, http://www.gnu.org/copyleft/gpl.txt).
 However, it is common practice in the scientific literature,
 to acknowledge the efforts of people that have made the research possible.
 In this spirit, please find below suggested citations of work written by ABINIT developers,
 corresponding to implementations inside of ABINIT that you have used in the present run.
 Note also that it will be of great value to readers of publications presenting these results,
 to read papers enabling them to understand the theoretical formalism and details
 of the ABINIT implementation.
 For information on why they are suggested, see also http://www.abinit.org/about/?text=acknowledgments.

 [1] ABINIT : First-principles approach of materials and nanosystem properties.
 X. Gonze, B. Amadon, P.-M. Anglade, J.-M. Beuken, F. Bottin, P. Boulanger, F. Bruneval,
 D. Caliste, R. Caracas, M. Cote, T. Deutsch, L. Genovese, Ph. Ghosez, M. Giantomassi
 S. Goedecker, D.R. Hamann, P. Hermet, F. Jollet, G. Jomard, S. Leroux, M. Mancini, S. Mazevet,
 M.J.T. Oliveira, G. Onida, Y. Pouillon, T. Rangel, G.-M. Rignanese, D. Sangalli, R. Shaltaf,
 M. Torrent, M.J. Verstraete, G. Zerah, J.W. Zwanziger
 Computer Phys. Comm. 180, 2582-2615 (2009).
 Comment : the third generic paper describing the ABINIT project.
 Note that a version of this paper, that is not formatted for Computer Phys. Comm. 
 is available at http://www.abinit.org/about/ABINIT_CPC_v10.pdf .
 The licence allows the authors to put it on the Web.

 [2] A brief introduction to the ABINIT software package.
 X. Gonze, G.-M. Rignanese, M. Verstraete, J.-M. Beuken, Y. Pouillon, R. Caracas, F. Jollet,
 M. Torrent, G. Zerah, M. Mikami, Ph. Ghosez, M. Veithen, J.-Y. Raty, V. Olevano, F. Bruneval,
 L. Reining, R. Godby, G. Onida, D.R. Hamann, and D.C. Allan.
 Z. Kristallogr. 220, 558-562 (2005).
 Comment : the second generic paper describing the ABINIT project. Note that this paper
 should be cited especially if you are using the GW part of ABINIT, as several authors
 of this part are not in the list of authors of the first or third paper.
 The .pdf of the latter paper is available at http://www.abinit.org/about/zfk_0505-06_558-562.pdf.
 Note that it should not redistributed (Copyright by Oldenburg Wissenshaftverlag,
 the licence allows the authors to put it on the Web).


 And optionally :

 [3] First-principles computation of material properties : the ABINIT software project. 
 X. Gonze, J.-M. Beuken, R. Caracas, F. Detraux, M. Fuchs, G.-M. Rignanese, L. Sindic,
 M. Verstraete, G. Zerah, F. Jollet, M. Torrent, A. Roy, M. Mikami, Ph. Ghosez, J.-Y. Raty, D.C. Allan.
 Computational Materials Science 25, 478-492 (2002). http://dx.doi.org/10.1016/S0927-0256(02)00325-7
 Comment : the original paper describing the ABINIT project.

 [4] Fast radix 2, 3, 4 and 5 kernels for Fast Fourier Transformations
 on computers with overlapping multiply-add instructions.
 S. Goedecker, SIAM J. on Scientific Computing 18, 1605 (1997).
-
- Proc.   0 individual time (sec): cpu=          1.2  wall=          1.2

================================================================================

 Calculation completed.
.Delivered    7 WARNINGs and   0 COMMENTs to log file.
+Overall time at end (sec) : cpu=          1.2  wall=          1.2
