
.Version 7.9.3 of ABINIT 
.(MPI version, prepared for a x86_64_linux_gnu4.7 computer) 

.Copyright (C) 1998-2014 ABINIT group . 
 ABINIT comes with ABSOLUTELY NO WARRANTY.
 It is free software, and you are welcome to redistribute it
 under certain conditions (GNU General Public License,
 see ~abinit/COPYING or http://www.gnu.org/copyleft/gpl.txt).

 ABINIT is a project of the Universite Catholique de Louvain,
 Corning Inc. and other collaborators, see ~abinit/doc/developers/contributors.txt .
 Please read ~abinit/doc/users/acknowledgments.html for suggested
 acknowledgments of the ABINIT effort.
 For more information, see http://www.abinit.org .

.Starting date : Sat 30 Aug 2014.
- ( at 22h19 )
  
- input  file    -> t26.in
- output file    -> t26.out
- root for input  files -> t26i
- root for output files -> t26o


 Symmetries : space group F-4 3 m (#216); Bravais cF (face-center cubic)
================================================================================
 Values of the parameters that define the memory need of the present run
   intxc =         1  ionmov =         0    iscf =         3 xclevel =         1
  lmnmax =         3   lnmax =         3   mband =         8  mffmem =         1
P  mgfft =        24   mkmem =         2 mpssoang=         4     mpw =       420
  mqgrid =      3001   natom =         1    nfft =     13824    nkpt =         2
  nloalg =         4  nspden =         1 nspinor =         1  nsppol =         1
    nsym =        24  n1xccc =      2501  ntypat =         1  occopt =         0
================================================================================
P This job should need less than                       3.398 Mbytes of memory.
  Rough estimation (10% accuracy) of disk space for files :
_ WF disk file :      0.105 Mbytes ; DEN or POT disk file :      0.107 Mbytes.
================================================================================

--------------------------------------------------------------------------------
------------- Echo of variables that govern the present computation ------------
--------------------------------------------------------------------------------
-
- outvars: echo of selected default values                                      
-   accesswff0 =  0 , fftalg0 =112 , wfoptalg0 =  0
-
- outvars: echo of global parameters not present in the input file              
-  max_nthreads =    0
-
 -outvars: echo values of preprocessed input variables --------
            acell      1.0358000000E+01  1.0358000000E+01  1.0358000000E+01 Bohr
              amu      1.73040000E+02
           diemac      1.20000000E+01
             ecut      1.00000000E+01 Hartree
           enunit           2
-          fftalg         112
            intxc           1
             iscf           3
              kpt      1.00000000E+00  1.00000000E+00  1.00000000E+00
                       1.00000000E+00  2.00000000E+00  2.00000000E+00
           kptnrm      4.00000000E+00
           kptopt           0
P           mkmem           2
            natom           1
            nband           8
            ngfft          24      24      24
             nkpt           2
            nline           3
            nstep          20
             nsym          24
           ntypat           1
              occ      2.000000  2.000000  2.000000  2.000000  2.000000  2.000000
                       2.000000  2.000000
           occopt           0
            rprim      0.0000000000E+00  5.0000000000E-01  5.0000000000E-01
                       5.0000000000E-01  0.0000000000E+00  5.0000000000E-01
                       5.0000000000E-01  5.0000000000E-01  0.0000000000E+00
          spgroup         216
           symrel      1  0  0   0  1  0   0  0  1       0  1 -1   1  0 -1   0  0 -1
                       0 -1  1   0 -1  0   1 -1  0      -1  0  0  -1  0  1  -1  1  0
                       0  1  0   0  0  1   1  0  0       1  0 -1   0  0 -1   0  1 -1
                       0 -1  0   1 -1  0   0 -1  1      -1  0  1  -1  1  0  -1  0  0
                       0  0  1   1  0  0   0  1  0       0  0 -1   0  1 -1   1  0 -1
                       1 -1  0   0 -1  1   0 -1  0      -1  1  0  -1  0  0  -1  0  1
                       1  0 -1   0  1 -1   0  0 -1       0  1  0   1  0  0   0  0  1
                      -1  0  1  -1  0  0  -1  1  0       0 -1  0   0 -1  1   1 -1  0
                      -1  1  0  -1  0  1  -1  0  0       1 -1  0   0 -1  0   0 -1  1
                       0  0 -1   1  0 -1   0  1 -1       0  0  1   0  1  0   1  0  0
                       0 -1  1   1 -1  0   0 -1  0      -1  0  0  -1  1  0  -1  0  1
                       1  0  0   0  0  1   0  1  0       0  1 -1   0  0 -1   1  0 -1
           tolwfr      1.00000000E-16
            typat      1
              wtk        0.25000    0.75000
            znucl       70.00000

================================================================================

 chkinp: Checking input parameters for consistency.

================================================================================
== DATASET  1 ==================================================================
-   nproc =    1

 Exchange-correlation functional for the present dataset will be:
  LDA: new Teter (4/93) with spin-polarized option - ixc=1
 Citation for XC functional:
  S. Goedecker, M. Teter, J. Huetter, PRB 54, 1703 (1996)

 Real(R)+Recip(G) space primitive vectors, cartesian coordinates (Bohr,Bohr^-1):
 R(1)=  0.0000000  5.1790000  5.1790000  G(1)= -0.0965437  0.0965437  0.0965437
 R(2)=  5.1790000  0.0000000  5.1790000  G(2)=  0.0965437 -0.0965437  0.0965437
 R(3)=  5.1790000  5.1790000  0.0000000  G(3)=  0.0965437  0.0965437 -0.0965437
 Unit cell volume ucvol=  2.7782270E+02 bohr^3
 Angles (23,13,12)=  6.00000000E+01  6.00000000E+01  6.00000000E+01 degrees

 getcut: wavevector=  0.0000  0.0000  0.0000  ngfft=  24  24  24
         ecut(hartree)=     10.000   => boxcut(ratio)=   2.30189

 getcut : COMMENT -
  Note that boxcut > 2.2 ; recall that boxcut=Gcut(box)/Gcut(sphere) = 2
  is sufficient for exact treatment of convolution.
  Such a large boxcut is a waste : you could raise ecut
  e.g. ecut=   13.246783 Hartrees makes boxcut=2


--- Pseudopotential description ------------------------------------------------
- pspini: atom type   1  psp file is /home/gonze/ABINIT/ABINITv7.9.3/trunk/7.9.3-private/tests/Psps_for_tests/70yb.pspnc
- pspatm: opening atomic psp file    /home/gonze/ABINIT/ABINITv7.9.3/trunk/7.9.3-private/tests/Psps_for_tests/70yb.pspnc
-  Troullier-Martins psp for element  Yb        Thu Oct 27 17:54:17 EDT 1994
- 70.00000  16.00000    940714                znucl, zion, pspdat
    1    1    3    0      2001   0.00000      pspcod,pspxc,lmax,lloc,mmax,r2well
    0   4.210   9.345    0   2.6885220        l,e99.0,e99.9,nproj,rcpsp
   0.00000000   0.00000000   0.00000000   0.00000000     rms, ekb1, ekb2, epsatm
    1   1.101   4.120    1   3.4092570        l,e99.0,e99.9,nproj,rcpsp
   0.00000000   0.00000000   0.00000000   0.00000000     rms, ekb1, ekb2, epsatm
    2   6.918   9.690    1   2.4942562        l,e99.0,e99.9,nproj,rcpsp
   0.00000000   0.00000000   0.00000000   0.00000000     rms, ekb1, ekb2, epsatm
    3  23.188  28.855    1   2.7912571        l,e99.0,e99.9,nproj,rcpsp
   0.00000000   0.00000000   0.00000000   0.00000000     rms, ekb1, ekb2, epsatm
    3.64900785408910    0.04847921662178    2.05554491768585   rchrg,fchrg,qchrg
 pspatm: epsatm=  122.42821809
         --- l  ekb(1:nproj) -->
             1    0.714860
             2   -2.528312
             3  -10.177023
 pspatm: atomic psp has been read  and splines computed

   1.95885149E+03                                ecore*ucvol(ha*bohr**3)
--------------------------------------------------------------------------------

P newkpt: treating      8 bands with npw=     417 for ikpt=   1 by node    0
P newkpt: treating      8 bands with npw=     420 for ikpt=   2 by node    0

_setup2: Arith. and geom. avg. npw (full set) are     419.250     419.248

================================================================================

     iter   Etot(hartree)      deltaE(h)  residm     vres2
 ETOT  1  -71.041637328147    -7.104E+01 1.083E-01 1.216E+01
 ETOT  2  -71.098779916217    -5.714E-02 2.297E-04 1.273E+00
 ETOT  3  -71.100336187802    -1.556E-03 5.075E-04 4.058E-02
 ETOT  4  -71.100535153069    -1.990E-04 2.789E-05 4.958E-04
 ETOT  5  -71.100584555004    -4.940E-05 4.764E-05 7.117E-05
 ETOT  6  -71.100599194592    -1.464E-05 2.281E-06 1.075E-05
 ETOT  7  -71.100603501506    -4.307E-06 3.940E-06 8.141E-07
 ETOT  8  -71.100604782513    -1.281E-06 2.084E-07 1.925E-07
 ETOT  9  -71.100605163545    -3.810E-07 3.540E-07 9.355E-09
 ETOT 10  -71.100605277642    -1.141E-07 1.863E-08 1.903E-08
 ETOT 11  -71.100605311869    -3.423E-08 3.175E-08 2.851E-09
 ETOT 12  -71.100605322121    -1.025E-08 1.682E-09 4.535E-09
 ETOT 13  -71.100605325221    -3.099E-09 2.869E-09 2.978E-09
 ETOT 14  -71.100605326145    -9.244E-10 1.527E-10 2.344E-09
 ETOT 15  -71.100605326423    -2.780E-10 2.439E-10 5.404E-11
 ETOT 16  -71.100605326509    -8.602E-11 1.502E-11 2.786E-11
 ETOT 17  -71.100605326536    -2.696E-11 2.308E-11 1.652E-12
 ETOT 18  -71.100605326544    -7.731E-12 1.490E-12 2.771E-12
 ETOT 19  -71.100605326547    -3.311E-12 2.182E-12 4.045E-13
 ETOT 20  -71.100605326547     2.274E-13 1.484E-13 9.809E-13

 Cartesian components of stress tensor (hartree/bohr^3)
  sigma(1 1)=  1.44325065E-03  sigma(3 2)=  0.00000000E+00
  sigma(2 2)=  1.44325065E-03  sigma(3 1)=  0.00000000E+00
  sigma(3 3)=  1.44325065E-03  sigma(2 1)=  0.00000000E+00


 scprqt:  WARNING -
  nstep=   20 was not enough SCF cycles to converge;
  maximum residual=  1.484E-13 exceeds tolwfr=  1.000E-16

================================================================================

 ----iterations are completed or convergence reached----

 Mean square residual over all n,k,spin=   9.2904E-15; max=  1.4842E-13
   0.2500  0.2500  0.2500    1  1.48422E-13 kpt; spin; max resid(k); each band:
  1.13E-17 1.79E-17 5.24E-18 5.24E-18 6.65E-18 6.65E-18 8.57E-18 1.48E-13
   0.2500  0.5000  0.5000    1  8.74276E-17 kpt; spin; max resid(k); each band:
  2.64E-17 6.58E-18 7.21E-18 7.29E-18 8.57E-18 6.99E-18 1.22E-17 8.74E-17
 reduced coordinates (array xred) for    1 atoms
       0.000000000000      0.000000000000      0.000000000000
 rms dE/dt=  0.0000E+00; max dE/dt=  0.0000E+00; dE/dt below (all hartree)
    1       0.000000000000      0.000000000000      0.000000000000

 cartesian coordinates (angstrom) at end:
    1      0.00000000000000     0.00000000000000     0.00000000000000

 cartesian forces (hartree/bohr) at end:
    1     -0.00000000000000    -0.00000000000000    -0.00000000000000
 frms,max,avg= 0.0000000E+00 0.0000000E+00   0.000E+00  0.000E+00  0.000E+00 h/b

 cartesian forces (eV/Angstrom) at end:
    1     -0.00000000000000    -0.00000000000000    -0.00000000000000
 frms,max,avg= 0.0000000E+00 0.0000000E+00   0.000E+00  0.000E+00  0.000E+00 e/A
 length scales= 10.358000000000 10.358000000000 10.358000000000 bohr
              =  5.481217526575  5.481217526575  5.481217526575 angstroms
 prteigrs : about to open file t26o_EIG
 Fermi (or HOMO) energy (hartree) =   0.02270   Average Vxc (hartree)=  -0.37628
 Eigenvalues (hartree) for nkpt=   2  k points:
 kpt#   1, nband=  8, wtk=  0.25000, kpt=  0.2500  0.2500  0.2500 (reduced coord)
  -0.76794  -0.72646  -0.72464  -0.72464  -0.71962  -0.71962  -0.17994   0.02270
 kpt#   2, nband=  8, wtk=  0.75000, kpt=  0.2500  0.5000  0.5000 (reduced coord)
  -0.76336  -0.72799  -0.72481  -0.72137  -0.71856  -0.71739  -0.14841  -0.06312
 Fermi (or HOMO) energy (eV) =   0.61769   Average Vxc (eV)= -10.23917
 Eigenvalues (   eV  ) for nkpt=   2  k points:
 kpt#   1, nband=  8, wtk=  0.25000, kpt=  0.2500  0.2500  0.2500 (reduced coord)
 -20.89679 -19.76793 -19.71851 -19.71851 -19.58174 -19.58174  -4.89636   0.61769
 kpt#   2, nband=  8, wtk=  0.75000, kpt=  0.2500  0.5000  0.5000 (reduced coord)
 -20.77195 -19.80955 -19.72302 -19.62954 -19.55294 -19.52112  -4.03853  -1.71771
 Total charge density [el/Bohr^3]
,     Maximum=    4.9090E-01  at reduced coord.    0.0000    0.0000    0.0000
,Next maximum=    4.8832E-01  at reduced coord.    0.0833    0.0833    0.8333
,     Minimum=    4.5633E-03  at reduced coord.    0.5000    0.5000    0.5000
,Next minimum=    4.6781E-03  at reduced coord.    0.5000    0.5000    0.4583
,  Integrated=    1.6000E+01

--------------------------------------------------------------------------------
 Components of total free energy (in Hartree) :

    Kinetic energy  =  2.38490554541576E+01
    Hartree energy  =  1.39086301711701E+01
    XC energy       = -8.79817254820796E+00
    Ewald energy    = -5.66578823601629E+01
    PspCore energy  =  7.05072510163587E+00
    Loc. psp. energy= -3.03673359118455E+01
    NL   psp  energy= -2.00856252332941E+01
    >>>>>>>>> Etotal= -7.11006053265470E+01

 Other information on the energy :
    Total energy(eV)= -1.93474586421903E+03 ; Band energy (Ha)=  -9.1475861935E+00
--------------------------------------------------------------------------------

 Cartesian components of stress tensor (hartree/bohr^3)
  sigma(1 1)=  1.44325065E-03  sigma(3 2)=  0.00000000E+00
  sigma(2 2)=  1.44325065E-03  sigma(3 1)=  0.00000000E+00
  sigma(3 3)=  1.44325065E-03  sigma(2 1)=  0.00000000E+00

-Cartesian components of stress tensor (GPa)         [Pressure= -4.2462E+01 GPa]
- sigma(1 1)=  4.24618928E+01  sigma(3 2)=  0.00000000E+00
- sigma(2 2)=  4.24618928E+01  sigma(3 1)=  0.00000000E+00
- sigma(3 3)=  4.24618928E+01  sigma(2 1)=  0.00000000E+00

== END DATASET(S) ==============================================================
================================================================================
  
 -outvars: echo values of variables after computation  --------
            acell      1.0358000000E+01  1.0358000000E+01  1.0358000000E+01 Bohr
              amu      1.73040000E+02
           diemac      1.20000000E+01
             ecut      1.00000000E+01 Hartree
           enunit           2
           etotal     -7.1100605327E+01
            fcart     -0.0000000000E+00 -0.0000000000E+00 -0.0000000000E+00
-          fftalg         112
            intxc           1
             iscf           3
              kpt      1.00000000E+00  1.00000000E+00  1.00000000E+00
                       1.00000000E+00  2.00000000E+00  2.00000000E+00
           kptnrm      4.00000000E+00
           kptopt           0
P           mkmem           2
            natom           1
            nband           8
            ngfft          24      24      24
             nkpt           2
            nline           3
            nstep          20
             nsym          24
           ntypat           1
              occ      2.000000  2.000000  2.000000  2.000000  2.000000  2.000000
                       2.000000  2.000000
           occopt           0
            rprim      0.0000000000E+00  5.0000000000E-01  5.0000000000E-01
                       5.0000000000E-01  0.0000000000E+00  5.0000000000E-01
                       5.0000000000E-01  5.0000000000E-01  0.0000000000E+00
          spgroup         216
           strten      1.4432506453E-03  1.4432506453E-03  1.4432506453E-03
                       0.0000000000E+00  0.0000000000E+00  0.0000000000E+00
           symrel      1  0  0   0  1  0   0  0  1       0  1 -1   1  0 -1   0  0 -1
                       0 -1  1   0 -1  0   1 -1  0      -1  0  0  -1  0  1  -1  1  0
                       0  1  0   0  0  1   1  0  0       1  0 -1   0  0 -1   0  1 -1
                       0 -1  0   1 -1  0   0 -1  1      -1  0  1  -1  1  0  -1  0  0
                       0  0  1   1  0  0   0  1  0       0  0 -1   0  1 -1   1  0 -1
                       1 -1  0   0 -1  1   0 -1  0      -1  1  0  -1  0  0  -1  0  1
                       1  0 -1   0  1 -1   0  0 -1       0  1  0   1  0  0   0  0  1
                      -1  0  1  -1  0  0  -1  1  0       0 -1  0   0 -1  1   1 -1  0
                      -1  1  0  -1  0  1  -1  0  0       1 -1  0   0 -1  0   0 -1  1
                       0  0 -1   1  0 -1   0  1 -1       0  0  1   0  1  0   1  0  0
                       0 -1  1   1 -1  0   0 -1  0      -1  0  0  -1  1  0  -1  0  1
                       1  0  0   0  0  1   0  1  0       0  1 -1   0  0 -1   1  0 -1
           tolwfr      1.00000000E-16
            typat      1
              wtk        0.25000    0.75000
            znucl       70.00000

================================================================================


- Timing analysis has been suppressed with timopt=0



================================================================================

 Suggested references for the acknowledgment of ABINIT usage.

 The users of ABINIT have little formal obligations with respect to the ABINIT group
 (those specified in the GNU General Public License, http://www.gnu.org/copyleft/gpl.txt).
 However, it is common practice in the scientific literature,
 to acknowledge the efforts of people that have made the research possible.
 In this spirit, please find below suggested citations of work written by ABINIT developers,
 corresponding to implementations inside of ABINIT that you have used in the present run.
 Note also that it will be of great value to readers of publications presenting these results,
 to read papers enabling them to understand the theoretical formalism and details
 of the ABINIT implementation.
 For information on why they are suggested, see also http://www.abinit.org/about/?text=acknowledgments.

 [1] ABINIT : First-principles approach of materials and nanosystem properties.
 X. Gonze, B. Amadon, P.-M. Anglade, J.-M. Beuken, F. Bottin, P. Boulanger, F. Bruneval,
 D. Caliste, R. Caracas, M. Cote, T. Deutsch, L. Genovese, Ph. Ghosez, M. Giantomassi
 S. Goedecker, D.R. Hamann, P. Hermet, F. Jollet, G. Jomard, S. Leroux, M. Mancini, S. Mazevet,
 M.J.T. Oliveira, G. Onida, Y. Pouillon, T. Rangel, G.-M. Rignanese, D. Sangalli, R. Shaltaf,
 M. Torrent, M.J. Verstraete, G. Zerah, J.W. Zwanziger
 Computer Phys. Comm. 180, 2582-2615 (2009).
 Comment : the third generic paper describing the ABINIT project.
 Note that a version of this paper, that is not formatted for Computer Phys. Comm. 
 is available at http://www.abinit.org/about/ABINIT_CPC_v10.pdf .
 The licence allows the authors to put it on the Web.

 [2] A brief introduction to the ABINIT software package.
 X. Gonze, G.-M. Rignanese, M. Verstraete, J.-M. Beuken, Y. Pouillon, R. Caracas, F. Jollet,
 M. Torrent, G. Zerah, M. Mikami, Ph. Ghosez, M. Veithen, J.-Y. Raty, V. Olevano, F. Bruneval,
 L. Reining, R. Godby, G. Onida, D.R. Hamann, and D.C. Allan.
 Z. Kristallogr. 220, 558-562 (2005).
 Comment : the second generic paper describing the ABINIT project. Note that this paper
 should be cited especially if you are using the GW part of ABINIT, as several authors
 of this part are not in the list of authors of the first or third paper.
 The .pdf of the latter paper is available at http://www.abinit.org/about/zfk_0505-06_558-562.pdf.
 Note that it should not redistributed (Copyright by Oldenburg Wissenshaftverlag,
 the licence allows the authors to put it on the Web).


 And optionally :

 [3] First-principles computation of material properties : the ABINIT software project. 
 X. Gonze, J.-M. Beuken, R. Caracas, F. Detraux, M. Fuchs, G.-M. Rignanese, L. Sindic,
 M. Verstraete, G. Zerah, F. Jollet, M. Torrent, A. Roy, M. Mikami, Ph. Ghosez, J.-Y. Raty, D.C. Allan.
 Computational Materials Science 25, 478-492 (2002). http://dx.doi.org/10.1016/S0927-0256(02)00325-7
 Comment : the original paper describing the ABINIT project.

 [4] Fast radix 2, 3, 4 and 5 kernels for Fast Fourier Transformations
 on computers with overlapping multiply-add instructions.
 S. Goedecker, SIAM J. on Scientific Computing 18, 1605 (1997).
-
- Proc.   0 individual time (sec): cpu=          1.1  wall=          1.1

================================================================================

 Calculation completed.
.Delivered    7 WARNINGs and   2 COMMENTs to log file.
+Overall time at end (sec) : cpu=          1.1  wall=          1.1
