
.Version 7.10.2 of ABINIT 
.(MPI version, prepared for a x86_64_linux_gnu4.7 computer) 

.Copyright (C) 1998-2014 ABINIT group . 
 ABINIT comes with ABSOLUTELY NO WARRANTY.
 It is free software, and you are welcome to redistribute it
 under certain conditions (GNU General Public License,
 see ~abinit/COPYING or http://www.gnu.org/copyleft/gpl.txt).

 ABINIT is a project of the Universite Catholique de Louvain,
 Corning Inc. and other collaborators, see ~abinit/doc/developers/contributors.txt .
 Please read ~abinit/doc/users/acknowledgments.html for suggested
 acknowledgments of the ABINIT effort.
 For more information, see http://www.abinit.org .

.Starting date : Tue 11 Nov 2014.
- ( at 12h01 )
  
- input  file    -> t21.in
- output file    -> t21_MPI4.out
- root for input  files -> t21_MPI4i
- root for output files -> t21_MPI4o


 DATASET    1 : space group R-3 m (#166); Bravais hR (rhombohedral)
================================================================================
 Values of the parameters that define the memory need for DATASET  1.
   intxc =         0  ionmov =         0    iscf =         7 xclevel =         1
  lmnmax =         4   lnmax =         4   mband =        12  mffmem =         1
P  mgfft =        24   mkmem =         1 mpssoang=         3     mpw =       106
  mqgrid =      3001   natom =         2    nfft =      6912    nkpt =         1
  nloalg =         4  nspden =         1 nspinor =         1  nsppol =         1
    nsym =        12  n1xccc =         0  ntypat =         1  occopt =         0
================================================================================
P This job should need less than                       2.831 Mbytes of memory.
  Rough estimation (10% accuracy) of disk space for files :
_ WF disk file :      0.041 Mbytes ; DEN or POT disk file :      0.055 Mbytes.
================================================================================


 DATASET    2 : space group R-3 m (#166); Bravais hR (rhombohedral)
================================================================================
 Values of the parameters that define the memory need for DATASET  2.
   intxc =         0  ionmov =         0    iscf =         7 xclevel =         1
  lmnmax =         4   lnmax =         4   mband =        12  mffmem =         1
P  mgfft =        24   mkmem =         1 mpssoang=         3     mpw =       106
  mqgrid =      3001   natom =         2    nfft =      6912    nkpt =         1
  nloalg =         4  nspden =         1 nspinor =         1  nsppol =         1
    nsym =        12  n1xccc =         0  ntypat =         1  occopt =         7
================================================================================
P This job should need less than                       3.564 Mbytes of memory.
  Rough estimation (10% accuracy) of disk space for files :
_ WF disk file :      0.041 Mbytes ; DEN or POT disk file :      0.055 Mbytes.
================================================================================


 DATASET    3 : space group R-3 m (#166); Bravais hR (rhombohedral)
================================================================================
 Values of the parameters that define the memory need for DATASET  3.
   intxc =         0  ionmov =         0    iscf =         7 xclevel =         1
  lmnmax =         4   lnmax =         4   mband =        12  mffmem =         1
P  mgfft =        24   mkmem =         5 mpssoang=         3     mpw =       107
  mqgrid =      3001   natom =         2    nfft =      6912    nkpt =         5
  nloalg =         4  nspden =         1 nspinor =         1  nsppol =         1
    nsym =        12  n1xccc =         0  ntypat =         1  occopt =         0
================================================================================
P This job should need less than                       2.923 Mbytes of memory.
  Rough estimation (10% accuracy) of disk space for files :
_ WF disk file :      0.198 Mbytes ; DEN or POT disk file :      0.055 Mbytes.
================================================================================


 DATASET    4 : space group R-3 m (#166); Bravais hR (rhombohedral)
================================================================================
 Values of the parameters that define the memory need for DATASET  4.
   intxc =         0  ionmov =         0    iscf =         7 xclevel =         1
  lmnmax =         4   lnmax =         4   mband =        12  mffmem =         1
P  mgfft =        24   mkmem =         5 mpssoang=         3     mpw =       107
  mqgrid =      3001   natom =         2    nfft =      6912    nkpt =         5
  nloalg =         4  nspden =         1 nspinor =         1  nsppol =         1
    nsym =        12  n1xccc =         0  ntypat =         1  occopt =         7
================================================================================
P This job should need less than                       3.655 Mbytes of memory.
  Rough estimation (10% accuracy) of disk space for files :
_ WF disk file :      0.198 Mbytes ; DEN or POT disk file :      0.055 Mbytes.
================================================================================


 DATASET    5 : space group R-3 m (#166); Bravais hR (rhombohedral)
================================================================================
 Values of the parameters that define the memory need for DATASET  5.
   intxc =         0  ionmov =         3    iscf =         7 xclevel =         1
  lmnmax =         4   lnmax =         4   mband =        12  mffmem =         1
P  mgfft =        24   mkmem =         1 mpssoang=         3     mpw =       106
  mqgrid =      3001   natom =         2    nfft =      6912    nkpt =         1
  nloalg =         4  nspden =         1 nspinor =         1  nsppol =         1
    nsym =        12  n1xccc =         0  ntypat =         1  occopt =         0
================================================================================
P This job should need less than                       2.831 Mbytes of memory.
  Rough estimation (10% accuracy) of disk space for files :
_ WF disk file :      0.041 Mbytes ; DEN or POT disk file :      0.055 Mbytes.
================================================================================


 DATASET    6 : space group R-3 m (#166); Bravais hR (rhombohedral)
================================================================================
 Values of the parameters that define the memory need for DATASET  6.
   intxc =         0  ionmov =         3    iscf =         7 xclevel =         1
  lmnmax =         4   lnmax =         4   mband =        12  mffmem =         1
P  mgfft =        24   mkmem =         1 mpssoang=         3     mpw =       106
  mqgrid =      3001   natom =         2    nfft =      6912    nkpt =         1
  nloalg =         4  nspden =         1 nspinor =         1  nsppol =         1
    nsym =        12  n1xccc =         0  ntypat =         1  occopt =         7
================================================================================
P This job should need less than                       3.564 Mbytes of memory.
  Rough estimation (10% accuracy) of disk space for files :
_ WF disk file :      0.041 Mbytes ; DEN or POT disk file :      0.055 Mbytes.
================================================================================


 DATASET    7 : space group R-3 m (#166); Bravais hR (rhombohedral)
================================================================================
 Values of the parameters that define the memory need for DATASET  7.
   intxc =         0  ionmov =         3    iscf =         7 xclevel =         1
  lmnmax =         4   lnmax =         4   mband =        12  mffmem =         1
P  mgfft =        24   mkmem =         5 mpssoang=         3     mpw =       107
  mqgrid =      3001   natom =         2    nfft =      6912    nkpt =         5
  nloalg =         4  nspden =         1 nspinor =         1  nsppol =         1
    nsym =        12  n1xccc =         0  ntypat =         1  occopt =         0
================================================================================
P This job should need less than                       2.923 Mbytes of memory.
  Rough estimation (10% accuracy) of disk space for files :
_ WF disk file :      0.198 Mbytes ; DEN or POT disk file :      0.055 Mbytes.
================================================================================


 DATASET    8 : space group R-3 m (#166); Bravais hR (rhombohedral)
================================================================================
 Values of the parameters that define the memory need for DATASET  8.
   intxc =         0  ionmov =         3    iscf =         7 xclevel =         1
  lmnmax =         4   lnmax =         4   mband =        12  mffmem =         1
P  mgfft =        24   mkmem =         5 mpssoang=         3     mpw =       107
  mqgrid =      3001   natom =         2    nfft =      6912    nkpt =         5
  nloalg =         4  nspden =         1 nspinor =         1  nsppol =         1
    nsym =        12  n1xccc =         0  ntypat =         1  occopt =         7
================================================================================
P This job should need less than                       3.655 Mbytes of memory.
  Rough estimation (10% accuracy) of disk space for files :
_ WF disk file :      0.198 Mbytes ; DEN or POT disk file :      0.055 Mbytes.
================================================================================

--------------------------------------------------------------------------------
------------- Echo of variables that govern the present computation ------------
--------------------------------------------------------------------------------
-
- outvars: echo of selected default values                                      
-   accesswff0 =  0 , fftalg0 =112 , wfoptalg0 =  0
-
- outvars: echo of global parameters not present in the input file              
-  max_nthreads =    0
-
 -outvars: echo values of preprocessed input variables --------
            acell      1.0366000000E+01  1.0366000000E+01  1.0366000000E+01 Bohr
              amu      2.80855000E+01
           diemac      1.20000000E+01
             ecut      1.00000000E+01 Hartree
           enunit           2
-          fftalg         401
      fft_opt_lob           2
           ionmov1          0
           ionmov2          0
           ionmov3          0
           ionmov4          0
           ionmov5          3
           ionmov6          3
           ionmov7          3
           ionmov8          3
           iprcch           6
           istwfk1       1
           istwfk2       1
           istwfk5       1
           istwfk6       1
              ixc           3
           jdtset        1    2    3    4    5    6    7    8
              kpt1     0.00000000E+00  0.00000000E+00  0.00000000E+00
              kpt2     0.00000000E+00  0.00000000E+00  0.00000000E+00
              kpt3    -2.50000000E-01  5.00000000E-01  0.00000000E+00
                      -2.50000000E-01 -2.50000000E-01  2.50000000E-01
                      -2.50000000E-01  0.00000000E+00  0.00000000E+00
                       5.00000000E-01  5.00000000E-01  2.50000000E-01
                      -2.50000000E-01 -2.50000000E-01 -2.50000000E-01
              kpt4    -2.50000000E-01  5.00000000E-01  0.00000000E+00
                      -2.50000000E-01 -2.50000000E-01  2.50000000E-01
                      -2.50000000E-01  0.00000000E+00  0.00000000E+00
                       5.00000000E-01  5.00000000E-01  2.50000000E-01
                      -2.50000000E-01 -2.50000000E-01 -2.50000000E-01
              kpt5     0.00000000E+00  0.00000000E+00  0.00000000E+00
              kpt6     0.00000000E+00  0.00000000E+00  0.00000000E+00
              kpt7    -2.50000000E-01  5.00000000E-01  0.00000000E+00
                      -2.50000000E-01 -2.50000000E-01  2.50000000E-01
                      -2.50000000E-01  0.00000000E+00  0.00000000E+00
                       5.00000000E-01  5.00000000E-01  2.50000000E-01
                      -2.50000000E-01 -2.50000000E-01 -2.50000000E-01
              kpt8    -2.50000000E-01  5.00000000E-01  0.00000000E+00
                      -2.50000000E-01 -2.50000000E-01  2.50000000E-01
                      -2.50000000E-01  0.00000000E+00  0.00000000E+00
                       5.00000000E-01  5.00000000E-01  2.50000000E-01
                      -2.50000000E-01 -2.50000000E-01 -2.50000000E-01
           kptopt1          0
           kptopt2          0
           kptopt3          1
           kptopt4          1
           kptopt5          0
           kptopt6          0
           kptopt7          1
           kptopt8          1
         kptrlatt        2   -2    2     -2    2    2     -2   -2    2
          kptrlen1     3.00000000E+01
          kptrlen2     3.00000000E+01
          kptrlen3     2.07320000E+01
          kptrlen4     2.07320000E+01
          kptrlen5     3.00000000E+01
          kptrlen6     3.00000000E+01
          kptrlen7     2.07320000E+01
          kptrlen8     2.07320000E+01
P           mkmem1          1
P           mkmem2          1
P           mkmem3          5
P           mkmem4          5
P           mkmem5          1
P           mkmem6          1
P           mkmem7          5
P           mkmem8          5
            natom           2
            nband1         12
            nband2         12
            nband3         12
            nband4         12
            nband5         12
            nband6         12
            nband7         12
            nband8         12
           ndtset           8
            ngfft          24      24      24
             nkpt1          1
             nkpt2          1
             nkpt3          5
             nkpt4          5
             nkpt5          1
             nkpt6          1
             nkpt7          5
             nkpt8          5
-          npband           2
-           npfft           2
            nstep          20
             nsym          12
            ntime1          1
            ntime2          1
            ntime3          1
            ntime4          1
            ntime5          5
            ntime6          5
            ntime7          5
            ntime8          5
           ntypat           1
              occ1     2.000000  2.000000  2.000000  2.000000  0.000000  0.000000
                       0.000000  0.000000  0.000000  0.000000  0.000000  0.000000
              occ2     2.000000  2.000000  2.000000  2.000000  0.000000  0.000000
                       0.000000  0.000000  0.000000  0.000000  0.000000  0.000000
              occ3     2.000000  2.000000  2.000000  2.000000  0.000000  0.000000
                       0.000000  0.000000  0.000000  0.000000  0.000000  0.000000
              occ4     2.000000  2.000000  2.000000  2.000000  0.000000  0.000000
                       0.000000  0.000000  0.000000  0.000000  0.000000  0.000000
                       2.000000  2.000000  2.000000  2.000000  0.000000  0.000000
                       0.000000  0.000000  0.000000  0.000000  0.000000  0.000000
                       2.000000  2.000000  2.000000  2.000000  0.000000  0.000000
                       0.000000  0.000000  0.000000  0.000000  0.000000  0.000000
                       2.000000  2.000000  2.000000  2.000000  0.000000  0.000000
                       0.000000  0.000000  0.000000  0.000000  0.000000  0.000000
                       2.000000  2.000000  2.000000  2.000000  0.000000  0.000000
                       0.000000  0.000000  0.000000  0.000000  0.000000  0.000000
              occ5     2.000000  2.000000  2.000000  2.000000  0.000000  0.000000
                       0.000000  0.000000  0.000000  0.000000  0.000000  0.000000
              occ6     2.000000  2.000000  2.000000  2.000000  0.000000  0.000000
                       0.000000  0.000000  0.000000  0.000000  0.000000  0.000000
              occ7     2.000000  2.000000  2.000000  2.000000  0.000000  0.000000
                       0.000000  0.000000  0.000000  0.000000  0.000000  0.000000
              occ8     2.000000  2.000000  2.000000  2.000000  0.000000  0.000000
                       0.000000  0.000000  0.000000  0.000000  0.000000  0.000000
                       2.000000  2.000000  2.000000  2.000000  0.000000  0.000000
                       0.000000  0.000000  0.000000  0.000000  0.000000  0.000000
                       2.000000  2.000000  2.000000  2.000000  0.000000  0.000000
                       0.000000  0.000000  0.000000  0.000000  0.000000  0.000000
                       2.000000  2.000000  2.000000  2.000000  0.000000  0.000000
                       0.000000  0.000000  0.000000  0.000000  0.000000  0.000000
                       2.000000  2.000000  2.000000  2.000000  0.000000  0.000000
                       0.000000  0.000000  0.000000  0.000000  0.000000  0.000000
           occopt1          0
           occopt2          7
           occopt3          0
           occopt4          7
           occopt5          0
           occopt6          7
           occopt7          0
           occopt8          7
        optforces           1
           ortalg          -2
        paral_kgb           1
            rprim      0.0000000000E+00  5.0000000000E-01  5.0000000000E-01
                       5.0000000000E-01  0.0000000000E+00  5.0000000000E-01
                       5.0000000000E-01  5.0000000000E-01  0.0000000000E+00
           shiftk      5.00000000E-01  5.00000000E-01  5.00000000E-01
          spgroup         166
           symrel      1  0  0   0  1  0   0  0  1      -1  0  0   0 -1  0   0  0 -1
                       1  0  0   0  0  1   0  1  0      -1  0  0   0  0 -1   0 -1  0
                       0  1  0   0  0  1   1  0  0       0 -1  0   0  0 -1  -1  0  0
                       0  1  0   1  0  0   0  0  1       0 -1  0  -1  0  0   0  0 -1
                       0  0  1   1  0  0   0  1  0       0  0 -1  -1  0  0   0 -1  0
                       0  0  1   0  1  0   1  0  0       0  0 -1   0 -1  0  -1  0  0
           timopt          -1
            tnons      0.0000000  0.0000000  0.0000000     0.2200000  0.2200000  0.2200000
                       0.0000000  0.0000000  0.0000000     0.2200000  0.2200000  0.2200000
                       0.0000000  0.0000000  0.0000000     0.2200000  0.2200000  0.2200000
                       0.0000000  0.0000000  0.0000000     0.2200000  0.2200000  0.2200000
                       0.0000000  0.0000000  0.0000000     0.2200000  0.2200000  0.2200000
                       0.0000000  0.0000000  0.0000000     0.2200000  0.2200000  0.2200000
           toldfe1     1.00000000E-10 Hartree
           toldfe2     1.00000000E-10 Hartree
           toldfe3     1.00000000E-10 Hartree
           toldfe4     1.00000000E-10 Hartree
           toldfe5     0.00000000E+00 Hartree
           toldfe6     0.00000000E+00 Hartree
           toldfe7     0.00000000E+00 Hartree
           toldfe8     0.00000000E+00 Hartree
           toldff1     0.00000000E+00
           toldff2     0.00000000E+00
           toldff3     0.00000000E+00
           toldff4     0.00000000E+00
           toldff5     1.00000000E-06
           toldff6     1.00000000E-06
           toldff7     1.00000000E-07
           toldff8     1.00000000E-07
           tolmxf1     5.00000000E-05
           tolmxf2     5.00000000E-05
           tolmxf3     5.00000000E-05
           tolmxf4     5.00000000E-05
           tolmxf5     1.00000000E-05
           tolmxf6     1.00000000E-05
           tolmxf7     1.00000000E-05
           tolmxf8     1.00000000E-05
           tsmear1     4.00000000E-02 Hartree
           tsmear2     1.00000000E-03 Hartree
           tsmear3     4.00000000E-02 Hartree
           tsmear4     1.00000000E-03 Hartree
           tsmear5     4.00000000E-02 Hartree
           tsmear6     1.00000000E-03 Hartree
           tsmear7     4.00000000E-02 Hartree
           tsmear8     1.00000000E-03 Hartree
            typat      1  1
         wfoptalg          14
              wtk1       1.00000
              wtk2       1.00000
              wtk3       0.37500    0.18750    0.18750    0.18750    0.06250
              wtk4       0.37500    0.18750    0.18750    0.18750    0.06250
              wtk5       1.00000
              wtk6       1.00000
              wtk7       0.37500    0.18750    0.18750    0.18750    0.06250
              wtk8       0.37500    0.18750    0.18750    0.18750    0.06250
           xangst      0.0000000000E+00  0.0000000000E+00  0.0000000000E+00
                       1.2067992077E+00  1.2067992077E+00  1.2067992077E+00
            xcart      0.0000000000E+00  0.0000000000E+00  0.0000000000E+00
                       2.2805200000E+00  2.2805200000E+00  2.2805200000E+00
             xred      0.0000000000E+00  0.0000000000E+00  0.0000000000E+00
                       2.2000000000E-01  2.2000000000E-01  2.2000000000E-01
            znucl       14.00000

================================================================================

 chkinp: Checking input parameters for consistency, jdtset=   1.

 chkinp: Checking input parameters for consistency, jdtset=   2.

 chkinp: Checking input parameters for consistency, jdtset=   3.

 chkinp: Checking input parameters for consistency, jdtset=   4.

 chkinp: Checking input parameters for consistency, jdtset=   5.

 chkinp: Checking input parameters for consistency, jdtset=   6.

 chkinp: Checking input parameters for consistency, jdtset=   7.

 chkinp: Checking input parameters for consistency, jdtset=   8.

================================================================================
== DATASET  1 ==================================================================
-   nproc =    4

 Exchange-correlation functional for the present dataset will be:
  LDA: old Teter (4/91) fit to Ceperley-Alder data - ixc=3

 Real(R)+Recip(G) space primitive vectors, cartesian coordinates (Bohr,Bohr^-1):
 R(1)=  0.0000000  5.1830000  5.1830000  G(1)= -0.0964692  0.0964692  0.0964692
 R(2)=  5.1830000  0.0000000  5.1830000  G(2)=  0.0964692 -0.0964692  0.0964692
 R(3)=  5.1830000  5.1830000  0.0000000  G(3)=  0.0964692  0.0964692 -0.0964692
 Unit cell volume ucvol=  2.7846693E+02 bohr^3
 Angles (23,13,12)=  6.00000000E+01  6.00000000E+01  6.00000000E+01 degrees

 getcut: wavevector=  0.0000  0.0000  0.0000  ngfft=  24  24  24
         ecut(hartree)=     10.000   => boxcut(ratio)=   2.30012

 getcut : COMMENT -
  Note that boxcut > 2.2 ; recall that boxcut=Gcut(box)/Gcut(sphere) = 2
  is sufficient for exact treatment of convolution.
  Such a large boxcut is a waste : you could raise ecut
  e.g. ecut=   13.226344 Hartrees makes boxcut=2


--- Pseudopotential description ------------------------------------------------
- pspini: atom type   1  psp file is /data/ABINIT/testf_gcc47/trunk_7.10.2-private/tests/Psps_for_tests/14si.phoney_mod
- pspatm: opening atomic psp file    /data/ABINIT/testf_gcc47/trunk_7.10.2-private/tests/Psps_for_tests/14si.phoney_mod
- 2 bohr rc 15 hartree ec psp for silicon 8 November 1991 (new)
- 14.00000   4.00000    980710                znucl, zion, pspdat
    5    3    2    2       600   0.00000      pspcod,pspxc,lmax,lloc,mmax,r2well
    1.000000E-06    3.075239E-02              r1 and al (Hamman grid)
    0   0.000   0.000    2   2.0042666        l,e99.0,e99.9,nproj,rcpsp
   0.00000000   0.00000000   0.00000000   0.00000000     rms, ekb1, ekb2, epsatm
    1   0.000   0.000    2   2.0042666        l,e99.0,e99.9,nproj,rcpsp
   0.00000000   0.00000000   0.00000000   0.00000000     rms, ekb1, ekb2, epsatm
    2   0.000   0.000    0   2.0042666        l,e99.0,e99.9,nproj,rcpsp
   0.00000000   0.00000000   0.00000000   0.00000000     rms, ekb1, ekb2, epsatm
    0.00000000000000    0.00000000000000    0.00000000000000   rchrg,fchrg,qchrg
 pspatm: epsatm=   -1.82035725
         --- l  ekb(1:nproj) -->
             0    3.773677   10.247662
             1    2.166328    2.055393
 pspatm: atomic psp has been read  and splines computed

  -2.91257160E+01                                ecore*ucvol(ha*bohr**3)
--------------------------------------------------------------------------------

P newkpt: treating     12 bands with npw=     106 for ikpt=   1 by node    0

_setup2: Arith. and geom. avg. npw (full set) are     106.000     106.000

================================================================================

     iter   Etot(hartree)      deltaE(h)  residm     vres2    diffor    maxfor
 ETOT  1  -7.2427985059485    -7.243E+00 1.079E-03 4.514E+01 1.075E-01 1.075E-01
 ETOT  2  -7.2578387007116    -1.504E-02 5.212E-07 2.804E+00 1.065E-03 1.086E-01
 ETOT  3  -7.2585783591414    -7.397E-04 2.142E-08 3.889E-02 1.925E-04 1.084E-01
 ETOT  4  -7.2585848170046    -6.458E-06 9.154E-10 1.150E-04 2.688E-05 1.083E-01
 ETOT  5  -7.2585848331259    -1.612E-08 3.191E-11 1.242E-06 2.810E-06 1.083E-01
 ETOT  6  -7.2585848333230    -1.971E-10 3.969E-13 3.059E-08 6.593E-07 1.083E-01
 ETOT  7  -7.2585848333284    -5.408E-12 1.221E-14 8.172E-10 1.674E-07 1.083E-01
 ETOT  8  -7.2585848333286    -1.723E-13 4.868E-16 5.261E-12 2.731E-08 1.083E-01

 At SCF step    8, etot is converged : 
  for the second time, diff in etot=  1.723E-13 < toldfe=  1.000E-10

 Cartesian components of stress tensor (hartree/bohr^3)
  sigma(1 1)= -1.27964520E-03  sigma(3 2)= -2.72091502E-04
  sigma(2 2)= -1.27964520E-03  sigma(3 1)= -2.72091502E-04
  sigma(3 3)= -1.27964520E-03  sigma(2 1)= -2.72091502E-04

================================================================================

 ----iterations are completed or convergence reached----

 Mean square residual over all n,k,spin=   9.0888E-17; max=  4.8682E-16
   0.0000  0.0000  0.0000    1  4.86818E-16 kpt; spin; max resid(k); each band:
  3.65E-20 1.13E-18 3.13E-19 3.39E-19 7.74E-18 1.03E-17 1.12E-19 1.70E-20
  2.76E-17 4.52E-16 4.87E-16 1.05E-16
 reduced coordinates (array xred) for    2 atoms
       0.000000000000      0.000000000000      0.000000000000
       0.220000000000      0.220000000000      0.220000000000
 rms dE/dt=  1.1230E+00; max dE/dt=  1.1230E+00; dE/dt below (all hartree)
    1       1.123015565086      1.123015565086      1.123015565086
    2      -1.123015565086     -1.123015565086     -1.123015565086

 cartesian coordinates (angstrom) at end:
    1      0.00000000000000     0.00000000000000     0.00000000000000
    2      1.20679920773367     1.20679920773367     1.20679920773367

 cartesian forces (hartree/bohr) at end:
    1     -0.10833644270555    -0.10833644270555    -0.10833644270555
    2      0.10833644270555     0.10833644270555     0.10833644270555
 frms,max,avg= 1.0833644E-01 1.0833644E-01   0.000E+00  0.000E+00  0.000E+00 h/b

 cartesian forces (eV/Angstrom) at end:
    1     -5.57088340282546    -5.57088340282546    -5.57088340282546
    2      5.57088340282546     5.57088340282546     5.57088340282546
 frms,max,avg= 5.5708834E+00 5.5708834E+00   0.000E+00  0.000E+00  0.000E+00 e/A
 length scales= 10.366000000000 10.366000000000 10.366000000000 bohr
              =  5.485450944244  5.485450944244  5.485450944244 angstroms
 prteigrs : about to open file t21_MPI4o_DS1_EIG
 Fermi (or HOMO) energy (hartree) =   0.29277   Average Vxc (hartree)=  -0.32106
 Eigenvalues (hartree) for nkpt=   1  k points:
 kpt#   1, nband= 12, wtk=  1.00000, kpt=  0.0000  0.0000  0.0000 (reduced coord)
  -0.18900   0.20016   0.29277   0.29277   0.30752   0.30752   0.35446   0.38220
   0.49813   0.53454   0.53454   0.60778
 Fermi (or HOMO) energy (eV) =   7.96663   Average Vxc (eV)=  -8.73650
 Eigenvalues (   eV  ) for nkpt=   1  k points:
 kpt#   1, nband= 12, wtk=  1.00000, kpt=  0.0000  0.0000  0.0000 (reduced coord)
  -5.14299   5.44664   7.96663   7.96663   8.36806   8.36806   9.64528  10.40011
  13.55483  14.54558  14.54558  16.53844
 Total charge density [el/Bohr^3]
,     Maximum=    1.5878E-01  at reduced coord.    0.1250    0.1250    0.1250
,Next maximum=    1.5812E-01  at reduced coord.    0.0833    0.1250    0.1250
,     Minimum=    9.0082E-04  at reduced coord.    0.0000    0.0000    0.0000
,Next minimum=    1.8215E-03  at reduced coord.    0.7500    0.7500    0.2500
,  Integrated=    8.0000E+00

--------------------------------------------------------------------------------
 Components of total free energy (in Hartree) :

    Kinetic energy  =  4.06784172597698E+00
    Hartree energy  =  8.43091007735954E-01
    XC energy       = -2.50122326198843E+00
    Ewald energy    = -8.26608138368135E+00
    PspCore energy  = -1.04593088893965E-01
    Loc. psp. energy= -2.93127395763192E+00
    NL   psp  energy=  1.63365412515414E+00
    >>>>>>>>> Etotal= -7.25858483332860E+00

 Other information on the energy :
    Total energy(eV)= -1.97516138180079E+02 ; Band energy (Ha)=   1.1933916972E+00
--------------------------------------------------------------------------------

 Cartesian components of stress tensor (hartree/bohr^3)
  sigma(1 1)= -1.27964520E-03  sigma(3 2)= -2.72091502E-04
  sigma(2 2)= -1.27964520E-03  sigma(3 1)= -2.72091502E-04
  sigma(3 3)= -1.27964520E-03  sigma(2 1)= -2.72091502E-04

-Cartesian components of stress tensor (GPa)         [Pressure=  3.7648E+01 GPa]
- sigma(1 1)= -3.76484551E+01  sigma(3 2)= -8.00520702E+00
- sigma(2 2)= -3.76484551E+01  sigma(3 1)= -8.00520702E+00
- sigma(3 3)= -3.76484551E+01  sigma(2 1)= -8.00520702E+00

================================================================================
== DATASET  2 ==================================================================
-   nproc =    4

 Exchange-correlation functional for the present dataset will be:
  LDA: old Teter (4/91) fit to Ceperley-Alder data - ixc=3

 Real(R)+Recip(G) space primitive vectors, cartesian coordinates (Bohr,Bohr^-1):
 R(1)=  0.0000000  5.1830000  5.1830000  G(1)= -0.0964692  0.0964692  0.0964692
 R(2)=  5.1830000  0.0000000  5.1830000  G(2)=  0.0964692 -0.0964692  0.0964692
 R(3)=  5.1830000  5.1830000  0.0000000  G(3)=  0.0964692  0.0964692 -0.0964692
 Unit cell volume ucvol=  2.7846693E+02 bohr^3
 Angles (23,13,12)=  6.00000000E+01  6.00000000E+01  6.00000000E+01 degrees

 getcut: wavevector=  0.0000  0.0000  0.0000  ngfft=  24  24  24
         ecut(hartree)=     10.000   => boxcut(ratio)=   2.30012

 getcut : COMMENT -
  Note that boxcut > 2.2 ; recall that boxcut=Gcut(box)/Gcut(sphere) = 2
  is sufficient for exact treatment of convolution.
  Such a large boxcut is a waste : you could raise ecut
  e.g. ecut=   13.226344 Hartrees makes boxcut=2

--------------------------------------------------------------------------------

P newkpt: treating     12 bands with npw=     106 for ikpt=   1 by node    0

_setup2: Arith. and geom. avg. npw (full set) are     106.000     106.000

================================================================================

     iter   Etot(hartree)      deltaE(h)  residm     vres2    diffor    maxfor
 ETOT  1  -7.2427985059485    -7.243E+00 1.079E-03 4.514E+01 1.075E-01 1.075E-01
 ETOT  2  -7.2578387007116    -1.504E-02 5.212E-07 2.804E+00 1.065E-03 1.086E-01
 ETOT  3  -7.2585783591414    -7.397E-04 2.142E-08 3.889E-02 1.925E-04 1.084E-01
 ETOT  4  -7.2585848170046    -6.458E-06 9.154E-10 1.150E-04 2.688E-05 1.083E-01
 ETOT  5  -7.2585848331259    -1.612E-08 3.191E-11 1.242E-06 2.810E-06 1.083E-01
 ETOT  6  -7.2585848333230    -1.971E-10 3.969E-13 3.059E-08 6.593E-07 1.083E-01
 ETOT  7  -7.2585848333284    -5.408E-12 1.221E-14 8.172E-10 1.674E-07 1.083E-01
 ETOT  8  -7.2585848333286    -1.723E-13 4.868E-16 5.261E-12 2.731E-08 1.083E-01

 At SCF step    8, etot is converged : 
  for the second time, diff in etot=  1.723E-13 < toldfe=  1.000E-10

 Cartesian components of stress tensor (hartree/bohr^3)
  sigma(1 1)= -1.27964520E-03  sigma(3 2)= -2.72091502E-04
  sigma(2 2)= -1.27964520E-03  sigma(3 1)= -2.72091502E-04
  sigma(3 3)= -1.27964520E-03  sigma(2 1)= -2.72091502E-04

================================================================================

 ----iterations are completed or convergence reached----

 Mean square residual over all n,k,spin=   9.0888E-17; max=  4.8682E-16
   0.0000  0.0000  0.0000    1  4.86818E-16 kpt; spin; max resid(k); each band:
  3.65E-20 1.13E-18 3.13E-19 3.39E-19 7.74E-18 1.03E-17 1.12E-19 1.70E-20
  2.76E-17 4.52E-16 4.87E-16 1.05E-16
 reduced coordinates (array xred) for    2 atoms
       0.000000000000      0.000000000000      0.000000000000
       0.220000000000      0.220000000000      0.220000000000
 rms dE/dt=  1.1230E+00; max dE/dt=  1.1230E+00; dE/dt below (all hartree)
    1       1.123015565086      1.123015565086      1.123015565086
    2      -1.123015565086     -1.123015565086     -1.123015565086

 cartesian coordinates (angstrom) at end:
    1      0.00000000000000     0.00000000000000     0.00000000000000
    2      1.20679920773367     1.20679920773367     1.20679920773367

 cartesian forces (hartree/bohr) at end:
    1     -0.10833644270555    -0.10833644270555    -0.10833644270555
    2      0.10833644270555     0.10833644270555     0.10833644270555
 frms,max,avg= 1.0833644E-01 1.0833644E-01   0.000E+00  0.000E+00  0.000E+00 h/b

 cartesian forces (eV/Angstrom) at end:
    1     -5.57088340282546    -5.57088340282546    -5.57088340282546
    2      5.57088340282546     5.57088340282546     5.57088340282546
 frms,max,avg= 5.5708834E+00 5.5708834E+00   0.000E+00  0.000E+00  0.000E+00 e/A
 length scales= 10.366000000000 10.366000000000 10.366000000000 bohr
              =  5.485450944244  5.485450944244  5.485450944244 angstroms
 prteigrs : about to open file t21_MPI4o_DS2_EIG
 Fermi (or HOMO) energy (hartree) =   0.30101   Average Vxc (hartree)=  -0.32106
 Eigenvalues (hartree) for nkpt=   1  k points:
 kpt#   1, nband= 12, wtk=  1.00000, kpt=  0.0000  0.0000  0.0000 (reduced coord)
  -0.18900   0.20016   0.29277   0.29277   0.30752   0.30752   0.35446   0.38220
   0.49813   0.53454   0.53454   0.60778
      occupation numbers for kpt#   1
   2.00000   2.00000   2.00000   2.00000   0.00000   0.00000   0.00000   0.00000
   0.00000   0.00000   0.00000   0.00000
 Fermi (or HOMO) energy (eV) =   8.19082   Average Vxc (eV)=  -8.73650
 Eigenvalues (   eV  ) for nkpt=   1  k points:
 kpt#   1, nband= 12, wtk=  1.00000, kpt=  0.0000  0.0000  0.0000 (reduced coord)
  -5.14299   5.44664   7.96663   7.96663   8.36806   8.36806   9.64528  10.40011
  13.55483  14.54558  14.54558  16.53844
 Total charge density [el/Bohr^3]
,     Maximum=    1.5878E-01  at reduced coord.    0.1250    0.1250    0.1250
,Next maximum=    1.5812E-01  at reduced coord.    0.0833    0.1250    0.1250
,     Minimum=    9.0082E-04  at reduced coord.    0.0000    0.0000    0.0000
,Next minimum=    1.8215E-03  at reduced coord.    0.7500    0.7500    0.2500
,  Integrated=    8.0000E+00

--------------------------------------------------------------------------------
 Components of total free energy (in Hartree) :

    Kinetic energy  =  4.06784172597698E+00
    Hartree energy  =  8.43091007735954E-01
    XC energy       = -2.50122326198843E+00
    Ewald energy    = -8.26608138368135E+00
    PspCore energy  = -1.04593088893965E-01
    Loc. psp. energy= -2.93127395763192E+00
    NL   psp  energy=  1.63365412515414E+00
    >>>>> Internal E= -7.25858483332860E+00

    -kT*entropy     = -2.83635311754038E-19
    >>>>>>>>> Etotal= -7.25858483332860E+00

 Other information on the energy :
    Total energy(eV)= -1.97516138180079E+02 ; Band energy (Ha)=   1.1933916972E+00
--------------------------------------------------------------------------------

 Cartesian components of stress tensor (hartree/bohr^3)
  sigma(1 1)= -1.27964520E-03  sigma(3 2)= -2.72091502E-04
  sigma(2 2)= -1.27964520E-03  sigma(3 1)= -2.72091502E-04
  sigma(3 3)= -1.27964520E-03  sigma(2 1)= -2.72091502E-04

-Cartesian components of stress tensor (GPa)         [Pressure=  3.7648E+01 GPa]
- sigma(1 1)= -3.76484551E+01  sigma(3 2)= -8.00520702E+00
- sigma(2 2)= -3.76484551E+01  sigma(3 1)= -8.00520702E+00
- sigma(3 3)= -3.76484551E+01  sigma(2 1)= -8.00520702E+00

================================================================================
== DATASET  3 ==================================================================
-   nproc =    4

 Exchange-correlation functional for the present dataset will be:
  LDA: old Teter (4/91) fit to Ceperley-Alder data - ixc=3

 Real(R)+Recip(G) space primitive vectors, cartesian coordinates (Bohr,Bohr^-1):
 R(1)=  0.0000000  5.1830000  5.1830000  G(1)= -0.0964692  0.0964692  0.0964692
 R(2)=  5.1830000  0.0000000  5.1830000  G(2)=  0.0964692 -0.0964692  0.0964692
 R(3)=  5.1830000  5.1830000  0.0000000  G(3)=  0.0964692  0.0964692 -0.0964692
 Unit cell volume ucvol=  2.7846693E+02 bohr^3
 Angles (23,13,12)=  6.00000000E+01  6.00000000E+01  6.00000000E+01 degrees

 getcut: wavevector=  0.0000  0.0000  0.0000  ngfft=  24  24  24
         ecut(hartree)=     10.000   => boxcut(ratio)=   2.30012

 getcut : COMMENT -
  Note that boxcut > 2.2 ; recall that boxcut=Gcut(box)/Gcut(sphere) = 2
  is sufficient for exact treatment of convolution.
  Such a large boxcut is a waste : you could raise ecut
  e.g. ecut=   13.226344 Hartrees makes boxcut=2

--------------------------------------------------------------------------------

P newkpt: treating     12 bands with npw=     104 for ikpt=   1 by node    0
P newkpt: treating     12 bands with npw=     107 for ikpt=   2 by node    0
P newkpt: treating     12 bands with npw=     106 for ikpt=   3 by node    0
P newkpt: treating     12 bands with npw=     106 for ikpt=   4 by node    0
P newkpt: treating     12 bands with npw=     107 for ikpt=   5 by node    0

_setup2: Arith. and geom. avg. npw (full set) are     105.500     105.493

================================================================================

     iter   Etot(hartree)      deltaE(h)  residm     vres2    diffor    maxfor
 ETOT  1  -7.8941508694174    -7.894E+00 3.828E-04 1.259E+01 5.631E-02 5.631E-02
 ETOT  2  -7.8992884863621    -5.138E-03 2.015E-05 4.236E-01 2.856E-03 5.917E-02
 ETOT  3  -7.8994158572637    -1.274E-04 2.281E-05 1.110E-02 7.450E-04 5.843E-02
 ETOT  4  -7.8994189634070    -3.106E-06 2.492E-06 1.781E-04 1.059E-04 5.853E-02
 ETOT  5  -7.8994190140598    -5.065E-08 2.529E-06 2.691E-07 1.500E-05 5.852E-02
 ETOT  6  -7.8994190142807    -2.209E-10 3.282E-07 3.096E-09 7.366E-07 5.852E-02
 ETOT  7  -7.8994190142823    -1.562E-12 4.016E-07 6.036E-11 1.664E-07 5.852E-02
 ETOT  8  -7.8994190142823    -3.197E-14 3.517E-08 1.095E-12 4.885E-09 5.852E-02

 At SCF step    8, etot is converged : 
  for the second time, diff in etot=  3.197E-14 < toldfe=  1.000E-10

 Cartesian components of stress tensor (hartree/bohr^3)
  sigma(1 1)=  2.33256068E-05  sigma(3 2)= -2.51514433E-04
  sigma(2 2)=  2.33256068E-05  sigma(3 1)= -2.51514433E-04
  sigma(3 3)=  2.33256068E-05  sigma(2 1)= -2.51514433E-04

================================================================================

 ----iterations are completed or convergence reached----

 Mean square residual over all n,k,spin=   1.1326E-09; max=  3.5165E-08
  -0.2500  0.5000  0.0000    1  3.23089E-08 kpt; spin; max resid(k); each band:
  2.27E-18 3.39E-18 1.28E-18 9.89E-19 1.70E-18 3.22E-17 2.44E-17 1.41E-17
  6.33E-17 1.07E-14 3.47E-11 3.23E-08
  -0.2500 -0.2500  0.2500    1  3.51653E-08 kpt; spin; max resid(k); each band:
  7.13E-18 2.35E-18 1.22E-18 2.39E-19 6.06E-18 4.56E-18 7.04E-19 2.66E-18
  5.32E-17 3.00E-14 4.48E-10 3.52E-08
  -0.2500  0.0000  0.0000    1  4.74223E-16 kpt; spin; max resid(k); each band:
  4.41E-19 3.12E-17 4.99E-18 1.42E-17 1.90E-17 7.54E-18 2.49E-17 8.36E-17
  1.98E-17 5.68E-19 2.61E-18 4.74E-16
   0.5000  0.5000  0.2500    1  1.51029E-12 kpt; spin; max resid(k); each band:
  1.17E-18 7.74E-19 1.51E-18 8.77E-20 4.96E-18 7.61E-18 7.01E-18 1.84E-18
  2.72E-17 2.17E-18 4.01E-16 1.51E-12
  -0.2500 -0.2500 -0.2500    1  2.27956E-15 kpt; spin; max resid(k); each band:
  2.37E-20 2.42E-19 2.44E-18 2.36E-18 1.10E-17 1.38E-17 1.40E-17 1.43E-18
  5.67E-18 6.12E-18 2.00E-18 2.28E-15
 reduced coordinates (array xred) for    2 atoms
       0.000000000000      0.000000000000      0.000000000000
       0.220000000000      0.220000000000      0.220000000000
 rms dE/dt=  6.0658E-01; max dE/dt=  6.0658E-01; dE/dt below (all hartree)
    1       0.606581812565      0.606581812565      0.606581812565
    2      -0.606581812565     -0.606581812565     -0.606581812565

 cartesian coordinates (angstrom) at end:
    1      0.00000000000000     0.00000000000000     0.00000000000000
    2      1.20679920773367     1.20679920773367     1.20679920773367

 cartesian forces (hartree/bohr) at end:
    1     -0.05851647815595    -0.05851647815595    -0.05851647815595
    2      0.05851647815595     0.05851647815595     0.05851647815595
 frms,max,avg= 5.8516478E-02 5.8516478E-02   0.000E+00  0.000E+00  0.000E+00 h/b

 cartesian forces (eV/Angstrom) at end:
    1     -3.00903803752157    -3.00903803752157    -3.00903803752157
    2      3.00903803752157     3.00903803752157     3.00903803752157
 frms,max,avg= 3.0090380E+00 3.0090380E+00   0.000E+00  0.000E+00  0.000E+00 e/A
 length scales= 10.366000000000 10.366000000000 10.366000000000 bohr
              =  5.485450944244  5.485450944244  5.485450944244 angstroms
 prteigrs : about to open file t21_MPI4o_DS3_EIG
 Fermi (or HOMO) energy (hartree) =   0.22458   Average Vxc (hartree)=  -0.33187
 Eigenvalues (hartree) for nkpt=   5  k points:
 kpt#   1, nband= 12, wtk=  0.37500, kpt= -0.2500  0.5000  0.0000 (reduced coord)
  -0.12249   0.00052   0.09936   0.14412   0.25482   0.39336   0.41681   0.45801
   0.57693   0.61349   0.65175   0.67471
 kpt#   2, nband= 12, wtk=  0.18750, kpt= -0.2500 -0.2500  0.2500 (reduced coord)
  -0.12318   0.01149   0.07063   0.15738   0.29436   0.35363   0.41078   0.43752
   0.60574   0.62355   0.67097   0.68491
 kpt#   3, nband= 12, wtk=  0.18750, kpt= -0.2500  0.0000  0.0000 (reduced coord)
  -0.18466   0.08576   0.16872   0.22458   0.27996   0.31292   0.38304   0.46049
   0.49161   0.50828   0.53649   0.63594
 kpt#   4, nband= 12, wtk=  0.18750, kpt=  0.5000  0.5000  0.2500 (reduced coord)
  -0.10566  -0.03911   0.10882   0.15284   0.29230   0.36243   0.43855   0.45376
   0.57688   0.58480   0.64861   0.65415
 kpt#   5, nband= 12, wtk=  0.06250, kpt= -0.2500 -0.2500 -0.2500 (reduced coord)
  -0.18098   0.05147   0.20775   0.20775   0.30993   0.36281   0.36281   0.44246
   0.46792   0.46792   0.54669   0.66589
 Fermi (or HOMO) energy (eV) =   6.11117   Average Vxc (eV)=  -9.03075
 Eigenvalues (   eV  ) for nkpt=   5  k points:
 kpt#   1, nband= 12, wtk=  0.37500, kpt= -0.2500  0.5000  0.0000 (reduced coord)
  -3.33315   0.01428   2.70374   3.92184   6.93401  10.70397  11.34210  12.46299
  15.69905  16.69389  17.73495  18.35970
 kpt#   2, nband= 12, wtk=  0.18750, kpt= -0.2500 -0.2500  0.2500 (reduced coord)
  -3.35198   0.31262   1.92188   4.28258   8.00996   9.62273  11.17802  11.90539
  16.48302  16.96764  18.25805  18.63748
 kpt#   3, nband= 12, wtk=  0.18750, kpt= -0.2500  0.0000  0.0000 (reduced coord)
  -5.02489   2.33358   4.59116   6.11117   7.61822   8.51494  10.42293  12.53062
  13.37743  13.83098  14.59870  17.30484
 kpt#   4, nband= 12, wtk=  0.18750, kpt=  0.5000  0.5000  0.2500 (reduced coord)
  -2.87525  -1.06431   2.96113   4.15909   7.95391   9.86210  11.93349  12.34743
  15.69761  15.91319  17.64951  17.80021
 kpt#   5, nband= 12, wtk=  0.06250, kpt= -0.2500 -0.2500 -0.2500 (reduced coord)
  -4.92472   1.40053   5.65304   5.65304   8.43358   9.87249   9.87249  12.04003
  12.73283  12.73283  14.87613  18.11978
 Total charge density [el/Bohr^3]
,     Maximum=    1.1666E-01  at reduced coord.    0.1250    0.0833    0.1250
,Next maximum=    1.1666E-01  at reduced coord.    0.0833    0.1250    0.1250
,     Minimum=    2.0301E-03  at reduced coord.    0.0000    0.0000    0.0000
,Next minimum=    3.0941E-03  at reduced coord.    0.7500    0.7500    0.2083
,  Integrated=    8.0000E+00

--------------------------------------------------------------------------------
 Components of total free energy (in Hartree) :

    Kinetic energy  =  3.06725042820958E+00
    Hartree energy  =  5.78444795082999E-01
    XC energy       = -2.38482548152875E+00
    Ewald energy    = -8.26608138368135E+00
    PspCore energy  = -1.04593088893965E-01
    Loc. psp. energy= -2.57393839943798E+00
    NL   psp  energy=  1.78432411596712E+00
    >>>>>>>>> Etotal= -7.89941901428234E+00

 Other information on the energy :
    Total energy(eV)= -2.14954123068620E+02 ; Band energy (Ha)=   3.2473766995E-01
--------------------------------------------------------------------------------

 Cartesian components of stress tensor (hartree/bohr^3)
  sigma(1 1)=  2.33256068E-05  sigma(3 2)= -2.51514433E-04
  sigma(2 2)=  2.33256068E-05  sigma(3 1)= -2.51514433E-04
  sigma(3 3)=  2.33256068E-05  sigma(2 1)= -2.51514433E-04

-Cartesian components of stress tensor (GPa)         [Pressure= -6.8626E-01 GPa]
- sigma(1 1)=  6.86262931E-01  sigma(3 2)= -7.39980884E+00
- sigma(2 2)=  6.86262931E-01  sigma(3 1)= -7.39980884E+00
- sigma(3 3)=  6.86262931E-01  sigma(2 1)= -7.39980884E+00

================================================================================
== DATASET  4 ==================================================================
-   nproc =    4

 Exchange-correlation functional for the present dataset will be:
  LDA: old Teter (4/91) fit to Ceperley-Alder data - ixc=3

 Real(R)+Recip(G) space primitive vectors, cartesian coordinates (Bohr,Bohr^-1):
 R(1)=  0.0000000  5.1830000  5.1830000  G(1)= -0.0964692  0.0964692  0.0964692
 R(2)=  5.1830000  0.0000000  5.1830000  G(2)=  0.0964692 -0.0964692  0.0964692
 R(3)=  5.1830000  5.1830000  0.0000000  G(3)=  0.0964692  0.0964692 -0.0964692
 Unit cell volume ucvol=  2.7846693E+02 bohr^3
 Angles (23,13,12)=  6.00000000E+01  6.00000000E+01  6.00000000E+01 degrees

 getcut: wavevector=  0.0000  0.0000  0.0000  ngfft=  24  24  24
         ecut(hartree)=     10.000   => boxcut(ratio)=   2.30012

 getcut : COMMENT -
  Note that boxcut > 2.2 ; recall that boxcut=Gcut(box)/Gcut(sphere) = 2
  is sufficient for exact treatment of convolution.
  Such a large boxcut is a waste : you could raise ecut
  e.g. ecut=   13.226344 Hartrees makes boxcut=2

--------------------------------------------------------------------------------

P newkpt: treating     12 bands with npw=     104 for ikpt=   1 by node    0
P newkpt: treating     12 bands with npw=     107 for ikpt=   2 by node    0
P newkpt: treating     12 bands with npw=     106 for ikpt=   3 by node    0
P newkpt: treating     12 bands with npw=     106 for ikpt=   4 by node    0
P newkpt: treating     12 bands with npw=     107 for ikpt=   5 by node    0

_setup2: Arith. and geom. avg. npw (full set) are     105.500     105.493

================================================================================

     iter   Etot(hartree)      deltaE(h)  residm     vres2    diffor    maxfor
 ETOT  1  -7.8941508694174    -7.894E+00 3.828E-04 1.259E+01 5.631E-02 5.631E-02
 ETOT  2  -7.8992884863621    -5.138E-03 2.015E-05 4.236E-01 2.856E-03 5.917E-02
 ETOT  3  -7.8994158572637    -1.274E-04 2.281E-05 1.110E-02 7.450E-04 5.843E-02
 ETOT  4  -7.8994189634070    -3.106E-06 2.492E-06 1.781E-04 1.059E-04 5.853E-02
 ETOT  5  -7.8994190140598    -5.065E-08 2.529E-06 2.691E-07 1.500E-05 5.852E-02
 ETOT  6  -7.8994190142807    -2.209E-10 3.282E-07 3.096E-09 7.366E-07 5.852E-02
 ETOT  7  -7.8994190142823    -1.562E-12 4.016E-07 6.036E-11 1.664E-07 5.852E-02
 ETOT  8  -7.8994190142823    -3.197E-14 3.517E-08 1.095E-12 4.885E-09 5.852E-02

 At SCF step    8, etot is converged : 
  for the second time, diff in etot=  3.197E-14 < toldfe=  1.000E-10

 Cartesian components of stress tensor (hartree/bohr^3)
  sigma(1 1)=  2.33256068E-05  sigma(3 2)= -2.51514433E-04
  sigma(2 2)=  2.33256068E-05  sigma(3 1)= -2.51514433E-04
  sigma(3 3)=  2.33256068E-05  sigma(2 1)= -2.51514433E-04

================================================================================

 ----iterations are completed or convergence reached----

 Mean square residual over all n,k,spin=   1.1326E-09; max=  3.5165E-08
  -0.2500  0.5000  0.0000    1  3.23089E-08 kpt; spin; max resid(k); each band:
  2.27E-18 3.39E-18 1.28E-18 9.89E-19 1.70E-18 3.22E-17 2.44E-17 1.41E-17
  6.33E-17 1.07E-14 3.47E-11 3.23E-08
  -0.2500 -0.2500  0.2500    1  3.51653E-08 kpt; spin; max resid(k); each band:
  7.13E-18 2.35E-18 1.22E-18 2.39E-19 6.06E-18 4.56E-18 7.04E-19 2.66E-18
  5.32E-17 3.00E-14 4.48E-10 3.52E-08
  -0.2500  0.0000  0.0000    1  4.74223E-16 kpt; spin; max resid(k); each band:
  4.41E-19 3.12E-17 4.99E-18 1.42E-17 1.90E-17 7.54E-18 2.49E-17 8.36E-17
  1.98E-17 5.68E-19 2.61E-18 4.74E-16
   0.5000  0.5000  0.2500    1  1.51029E-12 kpt; spin; max resid(k); each band:
  1.17E-18 7.74E-19 1.51E-18 8.77E-20 4.96E-18 7.61E-18 7.01E-18 1.84E-18
  2.72E-17 2.17E-18 4.01E-16 1.51E-12
  -0.2500 -0.2500 -0.2500    1  2.27956E-15 kpt; spin; max resid(k); each band:
  2.37E-20 2.42E-19 2.44E-18 2.36E-18 1.10E-17 1.38E-17 1.40E-17 1.43E-18
  5.67E-18 6.12E-18 2.00E-18 2.28E-15
 reduced coordinates (array xred) for    2 atoms
       0.000000000000      0.000000000000      0.000000000000
       0.220000000000      0.220000000000      0.220000000000
 rms dE/dt=  6.0658E-01; max dE/dt=  6.0658E-01; dE/dt below (all hartree)
    1       0.606581812565      0.606581812565      0.606581812565
    2      -0.606581812565     -0.606581812565     -0.606581812565

 cartesian coordinates (angstrom) at end:
    1      0.00000000000000     0.00000000000000     0.00000000000000
    2      1.20679920773367     1.20679920773367     1.20679920773367

 cartesian forces (hartree/bohr) at end:
    1     -0.05851647815595    -0.05851647815595    -0.05851647815595
    2      0.05851647815595     0.05851647815595     0.05851647815595
 frms,max,avg= 5.8516478E-02 5.8516478E-02   0.000E+00  0.000E+00  0.000E+00 h/b

 cartesian forces (eV/Angstrom) at end:
    1     -3.00903803752157    -3.00903803752157    -3.00903803752157
    2      3.00903803752157     3.00903803752157     3.00903803752157
 frms,max,avg= 3.0090380E+00 3.0090380E+00   0.000E+00  0.000E+00  0.000E+00 e/A
 length scales= 10.366000000000 10.366000000000 10.366000000000 bohr
              =  5.485450944244  5.485450944244  5.485450944244 angstroms
 prteigrs : about to open file t21_MPI4o_DS4_EIG
 Fermi (or HOMO) energy (hartree) =   0.23635   Average Vxc (hartree)=  -0.33187
 Eigenvalues (hartree) for nkpt=   5  k points:
 kpt#   1, nband= 12, wtk=  0.37500, kpt= -0.2500  0.5000  0.0000 (reduced coord)
  -0.12249   0.00052   0.09936   0.14412   0.25482   0.39336   0.41681   0.45801
   0.57693   0.61349   0.65175   0.67471
      occupation numbers for kpt#   1
   2.00000   2.00000   2.00000   2.00000   0.00000   0.00000   0.00000   0.00000
   0.00000   0.00000   0.00000   0.00000
 kpt#   2, nband= 12, wtk=  0.18750, kpt= -0.2500 -0.2500  0.2500 (reduced coord)
  -0.12318   0.01149   0.07063   0.15738   0.29436   0.35363   0.41078   0.43752
   0.60574   0.62355   0.67097   0.68491
      occupation numbers for kpt#   2
   2.00000   2.00000   2.00000   2.00000   0.00000   0.00000   0.00000   0.00000
   0.00000   0.00000   0.00000   0.00000
 kpt#   3, nband= 12, wtk=  0.18750, kpt= -0.2500  0.0000  0.0000 (reduced coord)
  -0.18466   0.08576   0.16872   0.22458   0.27996   0.31292   0.38304   0.46049
   0.49161   0.50828   0.53649   0.63594
      occupation numbers for kpt#   3
   2.00000   2.00000   2.00000   2.00000   0.00000   0.00000   0.00000   0.00000
   0.00000   0.00000   0.00000   0.00000
 kpt#   4, nband= 12, wtk=  0.18750, kpt=  0.5000  0.5000  0.2500 (reduced coord)
  -0.10566  -0.03911   0.10882   0.15284   0.29230   0.36243   0.43855   0.45376
   0.57688   0.58480   0.64861   0.65415
      occupation numbers for kpt#   4
   2.00000   2.00000   2.00000   2.00000   0.00000   0.00000   0.00000   0.00000
   0.00000   0.00000   0.00000   0.00000
 kpt#   5, nband= 12, wtk=  0.06250, kpt= -0.2500 -0.2500 -0.2500 (reduced coord)
  -0.18098   0.05147   0.20775   0.20775   0.30993   0.36281   0.36281   0.44246
   0.46792   0.46792   0.54669   0.66589
      occupation numbers for kpt#   5
   2.00000   2.00000   2.00000   2.00000   0.00000   0.00000   0.00000   0.00000
   0.00000   0.00000   0.00000   0.00000
 Fermi (or HOMO) energy (eV) =   6.43147   Average Vxc (eV)=  -9.03075
 Eigenvalues (   eV  ) for nkpt=   5  k points:
 kpt#   1, nband= 12, wtk=  0.37500, kpt= -0.2500  0.5000  0.0000 (reduced coord)
  -3.33315   0.01428   2.70374   3.92184   6.93401  10.70397  11.34210  12.46299
  15.69905  16.69389  17.73495  18.35970
 kpt#   2, nband= 12, wtk=  0.18750, kpt= -0.2500 -0.2500  0.2500 (reduced coord)
  -3.35198   0.31262   1.92188   4.28258   8.00996   9.62273  11.17802  11.90539
  16.48302  16.96764  18.25805  18.63748
 kpt#   3, nband= 12, wtk=  0.18750, kpt= -0.2500  0.0000  0.0000 (reduced coord)
  -5.02489   2.33358   4.59116   6.11117   7.61822   8.51494  10.42293  12.53062
  13.37743  13.83098  14.59870  17.30484
 kpt#   4, nband= 12, wtk=  0.18750, kpt=  0.5000  0.5000  0.2500 (reduced coord)
  -2.87525  -1.06431   2.96113   4.15909   7.95391   9.86210  11.93349  12.34743
  15.69761  15.91319  17.64951  17.80021
 kpt#   5, nband= 12, wtk=  0.06250, kpt= -0.2500 -0.2500 -0.2500 (reduced coord)
  -4.92472   1.40053   5.65304   5.65304   8.43358   9.87249   9.87249  12.04003
  12.73283  12.73283  14.87613  18.11978
 Total charge density [el/Bohr^3]
,     Maximum=    1.1666E-01  at reduced coord.    0.1250    0.0833    0.1250
,Next maximum=    1.1666E-01  at reduced coord.    0.0833    0.1250    0.1250
,     Minimum=    2.0301E-03  at reduced coord.    0.0000    0.0000    0.0000
,Next minimum=    3.0941E-03  at reduced coord.    0.7500    0.7500    0.2083
,  Integrated=    8.0000E+00

--------------------------------------------------------------------------------
 Components of total free energy (in Hartree) :

    Kinetic energy  =  3.06725042820958E+00
    Hartree energy  =  5.78444795082999E-01
    XC energy       = -2.38482548152875E+00
    Ewald energy    = -8.26608138368135E+00
    PspCore energy  = -1.04593088893965E-01
    Loc. psp. energy= -2.57393839943798E+00
    NL   psp  energy=  1.78432411596712E+00
    >>>>> Internal E= -7.89941901428234E+00

    -kT*entropy     = -2.83635311754038E-19
    >>>>>>>>> Etotal= -7.89941901428234E+00

 Other information on the energy :
    Total energy(eV)= -2.14954123068620E+02 ; Band energy (Ha)=   3.2473766995E-01
--------------------------------------------------------------------------------

 Cartesian components of stress tensor (hartree/bohr^3)
  sigma(1 1)=  2.33256068E-05  sigma(3 2)= -2.51514433E-04
  sigma(2 2)=  2.33256068E-05  sigma(3 1)= -2.51514433E-04
  sigma(3 3)=  2.33256068E-05  sigma(2 1)= -2.51514433E-04

-Cartesian components of stress tensor (GPa)         [Pressure= -6.8626E-01 GPa]
- sigma(1 1)=  6.86262931E-01  sigma(3 2)= -7.39980884E+00
- sigma(2 2)=  6.86262931E-01  sigma(3 1)= -7.39980884E+00
- sigma(3 3)=  6.86262931E-01  sigma(2 1)= -7.39980884E+00

================================================================================
== DATASET  5 ==================================================================
-   nproc =    4

 Exchange-correlation functional for the present dataset will be:
  LDA: old Teter (4/91) fit to Ceperley-Alder data - ixc=3

 Real(R)+Recip(G) space primitive vectors, cartesian coordinates (Bohr,Bohr^-1):
 R(1)=  0.0000000  5.1830000  5.1830000  G(1)= -0.0964692  0.0964692  0.0964692
 R(2)=  5.1830000  0.0000000  5.1830000  G(2)=  0.0964692 -0.0964692  0.0964692
 R(3)=  5.1830000  5.1830000  0.0000000  G(3)=  0.0964692  0.0964692 -0.0964692
 Unit cell volume ucvol=  2.7846693E+02 bohr^3
 Angles (23,13,12)=  6.00000000E+01  6.00000000E+01  6.00000000E+01 degrees

 getcut: wavevector=  0.0000  0.0000  0.0000  ngfft=  24  24  24
         ecut(hartree)=     10.000   => boxcut(ratio)=   2.30012

 getcut : COMMENT -
  Note that boxcut > 2.2 ; recall that boxcut=Gcut(box)/Gcut(sphere) = 2
  is sufficient for exact treatment of convolution.
  Such a large boxcut is a waste : you could raise ecut
  e.g. ecut=   13.226344 Hartrees makes boxcut=2

--------------------------------------------------------------------------------

P newkpt: treating     12 bands with npw=     106 for ikpt=   1 by node    0

_setup2: Arith. and geom. avg. npw (full set) are     106.000     106.000

================================================================================

=== [ionmov= 3] Broyden-Fletcher-Goldfard-Shanno method (forces,Tot energy) 
================================================================================

--- Iteration: (1/5) Internal Cycle: (1/1)
--------------------------------------------------------------------------------

---SELF-CONSISTENT-FIELD CONVERGENCE--------------------------------------------

     iter   Etot(hartree)      deltaE(h)  residm     vres2    diffor    maxfor
 ETOT  1  -7.2427985059485    -7.243E+00 1.079E-03 4.514E+01 1.075E-01 1.075E-01
 ETOT  2  -7.2578387007116    -1.504E-02 5.212E-07 2.804E+00 1.065E-03 1.086E-01
 ETOT  3  -7.2585783591414    -7.397E-04 2.142E-08 3.889E-02 1.925E-04 1.084E-01
 ETOT  4  -7.2585848170046    -6.458E-06 9.154E-10 1.150E-04 2.688E-05 1.083E-01
 ETOT  5  -7.2585848331259    -1.612E-08 3.191E-11 1.242E-06 2.810E-06 1.083E-01
 ETOT  6  -7.2585848333230    -1.971E-10 3.969E-13 3.059E-08 6.593E-07 1.083E-01
 ETOT  7  -7.2585848333284    -5.408E-12 1.221E-14 8.172E-10 1.674E-07 1.083E-01

 At SCF step    7, forces are converged : 
  for the second time, max diff in force=  1.674E-07 < toldff=  1.000E-06

 Cartesian components of stress tensor (hartree/bohr^3)
  sigma(1 1)= -1.27964572E-03  sigma(3 2)= -2.72090624E-04
  sigma(2 2)= -1.27964572E-03  sigma(3 1)= -2.72090624E-04
  sigma(3 3)= -1.27964572E-03  sigma(2 1)= -2.72090624E-04


---OUTPUT-----------------------------------------------------------------------

 Cartesian coordinates (xcart) [bohr]
  0.00000000000000E+00  0.00000000000000E+00  0.00000000000000E+00
  2.28052000000000E+00  2.28052000000000E+00  2.28052000000000E+00
 Reduced coordinates (xred)
  0.00000000000000E+00  0.00000000000000E+00  0.00000000000000E+00
  2.20000000000000E-01  2.20000000000000E-01  2.20000000000000E-01
 Cartesian forces (fcart) [Ha/bohr]; max,rms= 1.08336E-01 1.08336E-01 (free atoms)
 -1.08336470017763E-01 -1.08336470017763E-01 -1.08336470017763E-01
  1.08336470017763E-01  1.08336470017763E-01  1.08336470017763E-01
 Reduced forces (fred)
  1.12301584820413E+00  1.12301584820413E+00  1.12301584820413E+00
 -1.12301584820413E+00 -1.12301584820413E+00 -1.12301584820413E+00
 Total energy (etotal) [Ha]= -7.25858483332843E+00

--- Iteration: (2/5) Internal Cycle: (1/1)
--------------------------------------------------------------------------------

---SELF-CONSISTENT-FIELD CONVERGENCE--------------------------------------------

     iter   Etot(hartree)      deltaE(h)  residm     vres2    diffor    maxfor
 ETOT  1  -7.3010343333418    -7.301E+00 2.311E-09 4.554E-01 8.436E-02 2.398E-02
 ETOT  2  -7.3011176913575    -8.336E-05 9.748E-12 9.671E-03 2.987E-03 2.697E-02
 ETOT  3  -7.3011190407536    -1.349E-06 2.183E-10 1.712E-04 4.283E-04 2.740E-02
 ETOT  4  -7.3011190745853    -3.383E-08 4.751E-12 3.162E-06 2.994E-05 2.743E-02
 ETOT  5  -7.3011190752931    -7.079E-10 4.193E-14 3.063E-08 1.900E-06 2.743E-02
 ETOT  6  -7.3011190752986    -5.440E-12 1.803E-15 8.022E-10 2.637E-07 2.743E-02
 ETOT  7  -7.3011190752988    -2.096E-13 5.290E-17 2.521E-12 1.126E-08 2.743E-02

 At SCF step    7, forces are converged : 
  for the second time, max diff in force=  1.126E-08 < toldff=  1.000E-06

 Cartesian components of stress tensor (hartree/bohr^3)
  sigma(1 1)= -1.13046490E-03  sigma(3 2)= -6.16436706E-05
  sigma(2 2)= -1.13046490E-03  sigma(3 1)= -6.16436706E-05
  sigma(3 3)= -1.13046490E-03  sigma(2 1)= -6.16436706E-05


---OUTPUT-----------------------------------------------------------------------

 Cartesian coordinates (xcart) [bohr]
 -1.08336470017763E-01 -1.08336470017763E-01 -1.08336470017763E-01
  2.38885647001776E+00  2.38885647001776E+00  2.38885647001776E+00
 Reduced coordinates (xred)
 -1.04511354445074E-02 -1.04511354445074E-02 -1.04511354445074E-02
  2.30451135444507E-01  2.30451135444507E-01  2.30451135444507E-01
 Cartesian forces (fcart) [Ha/bohr]; max,rms= 2.74266E-02 2.74266E-02 (free atoms)
 -2.74266302590581E-02 -2.74266302590581E-02 -2.74266302590581E-02
  2.74266302590581E-02  2.74266302590581E-02  2.74266302590581E-02
 Reduced forces (fred)
  2.84304449265396E-01  2.84304449265396E-01  2.84304449265396E-01
 -2.84304449265396E-01 -2.84304449265396E-01 -2.84304449265396E-01
 Total energy (etotal) [Ha]= -7.30111907529880E+00

 Difference of energy with previous step (new-old):
           Absolute (Ha)=-4.25342E-02
           Relative     =-5.84273E-03

--- Iteration: (3/5) Internal Cycle: (1/1)
--------------------------------------------------------------------------------

---SELF-CONSISTENT-FIELD CONVERGENCE--------------------------------------------

     iter   Etot(hartree)      deltaE(h)  residm     vres2    diffor    maxfor
 ETOT  1  -7.3049046142742    -7.305E+00 2.910E-09 1.310E-02 2.838E-02 9.537E-04
 ETOT  2  -7.3049057830654    -1.169E-06 6.505E-13 2.501E-04 4.374E-05 9.099E-04
 ETOT  3  -7.3049058256118    -4.255E-08 1.041E-10 1.010E-05 1.172E-06 9.088E-04
 ETOT  4  -7.3049058279598    -2.348E-09 2.718E-12 1.755E-07 1.574E-06 9.103E-04
 ETOT  5  -7.3049058279919    -3.206E-11 1.499E-14 9.403E-10 3.369E-07 9.107E-04
 ETOT  6  -7.3049058279921    -2.007E-13 8.152E-16 5.110E-12 7.297E-09 9.107E-04

 At SCF step    6, forces are converged : 
  for the second time, max diff in force=  7.297E-09 < toldff=  1.000E-06

 Cartesian components of stress tensor (hartree/bohr^3)
  sigma(1 1)= -1.11809344E-03  sigma(3 2)=  1.98326249E-06
  sigma(2 2)= -1.11809344E-03  sigma(3 1)=  1.98326249E-06
  sigma(3 3)= -1.11809344E-03  sigma(2 1)=  1.98326249E-06


---OUTPUT-----------------------------------------------------------------------

 Cartesian coordinates (xcart) [bohr]
 -1.57170799981504E-01 -1.57170799981504E-01 -1.57170799981504E-01
  2.43769079998150E+00  2.43769079998150E+00  2.43769079998150E+00
 Reduced coordinates (xred)
 -1.51621454738090E-02 -1.51621454738090E-02 -1.51621454738090E-02
  2.35162145473809E-01  2.35162145473809E-01  2.35162145473809E-01
 Cartesian forces (fcart) [Ha/bohr]; max,rms= 9.10684E-04 9.10684E-04 (free atoms)
  9.10684433420919E-04  9.10684433420919E-04  9.10684433420919E-04
 -9.10684433420919E-04 -9.10684433420919E-04 -9.10684433420919E-04
 Reduced forces (fred)
 -9.44015483684125E-03 -9.44015483684125E-03 -9.44015483684125E-03
  9.44015483684125E-03  9.44015483684125E-03  9.44015483684125E-03
 Total energy (etotal) [Ha]= -7.30490582799207E+00

 Difference of energy with previous step (new-old):
           Absolute (Ha)=-3.78675E-03
           Relative     =-5.18519E-04

--- Iteration: (4/5) Internal Cycle: (1/1)
--------------------------------------------------------------------------------

---SELF-CONSISTENT-FIELD CONVERGENCE--------------------------------------------

     iter   Etot(hartree)      deltaE(h)  residm     vres2    diffor    maxfor
 ETOT  1  -7.3049104215958    -7.305E+00 3.838E-12 1.370E-06 9.122E-04 1.491E-06
 ETOT  2  -7.3049104217182    -1.224E-10 1.122E-16 2.480E-08 6.224E-08 1.553E-06
 ETOT  3  -7.3049104217221    -3.885E-12 7.297E-16 1.015E-09 5.614E-08 1.609E-06

 At SCF step    3, forces are converged : 
  for the second time, max diff in force=  5.614E-08 < toldff=  1.000E-06

 Cartesian components of stress tensor (hartree/bohr^3)
  sigma(1 1)= -1.11808120E-03  sigma(3 2)= -3.29428832E-09
  sigma(2 2)= -1.11808120E-03  sigma(3 1)= -3.29428832E-09
  sigma(3 3)= -1.11808120E-03  sigma(2 1)= -3.29428832E-09


---OUTPUT-----------------------------------------------------------------------

 Cartesian coordinates (xcart) [bohr]
 -1.55487675757779E-01 -1.55487675757779E-01 -1.55487675757779E-01
  2.43600767575778E+00  2.43600767575778E+00  2.43600767575778E+00
 Reduced coordinates (xred)
 -1.49997757821512E-02 -1.49997757821512E-02 -1.49997757821512E-02
  2.34999775782151E-01  2.34999775782151E-01  2.34999775782151E-01
 Cartesian forces (fcart) [Ha/bohr]; max,rms= 1.60903E-06 1.60903E-06 (free atoms)
 -1.60902851256692E-06 -1.60902851256692E-06 -1.60902851256692E-06
  1.60902851256692E-06  1.60902851256692E-06  1.60902851256692E-06
 Reduced forces (fred)
  1.66791895612687E-05  1.66791895612687E-05  1.66791895612687E-05
 -1.66791895612687E-05 -1.66791895612687E-05 -1.66791895612687E-05
 Total energy (etotal) [Ha]= -7.30491042172209E+00

 Difference of energy with previous step (new-old):
           Absolute (Ha)=-4.59373E-06
           Relative     =-6.28855E-07

 At Broyd/MD step   4, gradients are converged : 
  max grad (force/stress) = 1.6090E-06 < tolmxf= 1.0000E-05 ha/bohr (free atoms)

================================================================================

 ----iterations are completed or convergence reached----

 Mean square residual over all n,k,spin=   8.9661E-17; max=  7.2969E-16
   0.0000  0.0000  0.0000    1  7.29689E-16 kpt; spin; max resid(k); each band:
  1.85E-18 7.16E-18 7.24E-19 1.15E-18 1.82E-16 1.47E-16 1.01E-18 2.07E-18
  7.30E-16 1.47E-18 1.59E-18 4.85E-19
 reduced coordinates (array xred) for    2 atoms
      -0.014999775782     -0.014999775782     -0.014999775782
       0.234999775782      0.234999775782      0.234999775782
 rms dE/dt=  1.6679E-05; max dE/dt=  1.6679E-05; dE/dt below (all hartree)
    1       0.000016679190      0.000016679190      0.000016679190
    2      -0.000016679190     -0.000016679190     -0.000016679190

 cartesian coordinates (angstrom) at end:
    1     -0.08228053422765    -0.08228053422765    -0.08228053422765
    2      1.28907974196132     1.28907974196132     1.28907974196132

 cartesian forces (hartree/bohr) at end:
    1     -0.00000160902851    -0.00000160902851    -0.00000160902851
    2      0.00000160902851     0.00000160902851     0.00000160902851
 frms,max,avg= 1.6090285E-06 1.6090285E-06   0.000E+00  0.000E+00  0.000E+00 h/b

 cartesian forces (eV/Angstrom) at end:
    1     -0.00008273956585    -0.00008273956585    -0.00008273956585
    2      0.00008273956585     0.00008273956585     0.00008273956585
 frms,max,avg= 8.2739566E-05 8.2739566E-05   0.000E+00  0.000E+00  0.000E+00 e/A
 length scales= 10.366000000000 10.366000000000 10.366000000000 bohr
              =  5.485450944244  5.485450944244  5.485450944244 angstroms
 prteigrs : about to open file t21_MPI4o_DS5_EIG
 Fermi (or HOMO) energy (hartree) =   0.25997   Average Vxc (hartree)=  -0.32063
 Eigenvalues (hartree) for nkpt=   1  k points:
 kpt#   1, nband= 12, wtk=  1.00000, kpt=  0.0000  0.0000  0.0000 (reduced coord)
  -0.18238   0.25996   0.25997   0.25997   0.33812   0.33812   0.33812   0.36221
   0.50430   0.52880   0.52880   0.63394
 Fermi (or HOMO) energy (eV) =   7.07401   Average Vxc (eV)=  -8.72471
 Eigenvalues (   eV  ) for nkpt=   1  k points:
 kpt#   1, nband= 12, wtk=  1.00000, kpt=  0.0000  0.0000  0.0000 (reduced coord)
  -4.96279   7.07397   7.07401   7.07401   9.20082   9.20082   9.20084   9.85630
  13.72279  14.38942  14.38942  17.25034
 Total charge density [el/Bohr^3]
,     Maximum=    1.1914E-01  at reduced coord.    0.0833    0.0833    0.0833
,Next maximum=    1.1841E-01  at reduced coord.    0.1250    0.1250    0.0417
,     Minimum=    1.7616E-03  at reduced coord.    0.7500    0.7500    0.2083
,Next minimum=    1.7616E-03  at reduced coord.    0.7500    0.7083    0.2500
,  Integrated=    8.0000E+00

--------------------------------------------------------------------------------
 Components of total free energy (in Hartree) :

    Kinetic energy  =  4.03530259232642E+00
    Hartree energy  =  8.42601641423432E-01
    XC energy       = -2.50138411355722E+00
    Ewald energy    = -8.31456383428406E+00
    PspCore energy  = -1.04593088893965E-01
    Loc. psp. energy= -2.86840002515156E+00
    NL   psp  energy=  1.60612640641487E+00
    >>>>>>>>> Etotal= -7.30491042172209E+00

 Other information on the energy :
    Total energy(eV)= -1.98776721548394E+02 ; Band energy (Ha)=   1.1950293516E+00
--------------------------------------------------------------------------------
 rms coord change=  1.5000E-02   atom, delta coord (reduced):
     1       -0.014999775782     -0.014999775782     -0.014999775782
     2        0.014999775782      0.014999775782      0.014999775782

 Cartesian components of stress tensor (hartree/bohr^3)
  sigma(1 1)= -1.11808120E-03  sigma(3 2)= -3.29428832E-09
  sigma(2 2)= -1.11808120E-03  sigma(3 1)= -3.29428832E-09
  sigma(3 3)= -1.11808120E-03  sigma(2 1)= -3.29428832E-09

-Cartesian components of stress tensor (GPa)         [Pressure=  3.2895E+01 GPa]
- sigma(1 1)= -3.28950792E+01  sigma(3 2)= -9.69212923E-05
- sigma(2 2)= -3.28950792E+01  sigma(3 1)= -9.69212923E-05
- sigma(3 3)= -3.28950792E+01  sigma(2 1)= -9.69212923E-05

================================================================================
== DATASET  6 ==================================================================
-   nproc =    4

 Exchange-correlation functional for the present dataset will be:
  LDA: old Teter (4/91) fit to Ceperley-Alder data - ixc=3

 Real(R)+Recip(G) space primitive vectors, cartesian coordinates (Bohr,Bohr^-1):
 R(1)=  0.0000000  5.1830000  5.1830000  G(1)= -0.0964692  0.0964692  0.0964692
 R(2)=  5.1830000  0.0000000  5.1830000  G(2)=  0.0964692 -0.0964692  0.0964692
 R(3)=  5.1830000  5.1830000  0.0000000  G(3)=  0.0964692  0.0964692 -0.0964692
 Unit cell volume ucvol=  2.7846693E+02 bohr^3
 Angles (23,13,12)=  6.00000000E+01  6.00000000E+01  6.00000000E+01 degrees

 getcut: wavevector=  0.0000  0.0000  0.0000  ngfft=  24  24  24
         ecut(hartree)=     10.000   => boxcut(ratio)=   2.30012

 getcut : COMMENT -
  Note that boxcut > 2.2 ; recall that boxcut=Gcut(box)/Gcut(sphere) = 2
  is sufficient for exact treatment of convolution.
  Such a large boxcut is a waste : you could raise ecut
  e.g. ecut=   13.226344 Hartrees makes boxcut=2

--------------------------------------------------------------------------------

P newkpt: treating     12 bands with npw=     106 for ikpt=   1 by node    0

_setup2: Arith. and geom. avg. npw (full set) are     106.000     106.000

================================================================================

=== [ionmov= 3] Broyden-Fletcher-Goldfard-Shanno method (forces,Tot energy) 
================================================================================

--- Iteration: (1/5) Internal Cycle: (1/1)
--------------------------------------------------------------------------------

---SELF-CONSISTENT-FIELD CONVERGENCE--------------------------------------------

     iter   Etot(hartree)      deltaE(h)  residm     vres2    diffor    maxfor
 ETOT  1  -7.2427985059485    -7.243E+00 1.079E-03 4.514E+01 1.075E-01 1.075E-01
 ETOT  2  -7.2578387007116    -1.504E-02 5.212E-07 2.804E+00 1.065E-03 1.086E-01
 ETOT  3  -7.2585783591414    -7.397E-04 2.142E-08 3.889E-02 1.925E-04 1.084E-01
 ETOT  4  -7.2585848170046    -6.458E-06 9.154E-10 1.150E-04 2.688E-05 1.083E-01
 ETOT  5  -7.2585848331259    -1.612E-08 3.191E-11 1.242E-06 2.810E-06 1.083E-01
 ETOT  6  -7.2585848333230    -1.971E-10 3.969E-13 3.059E-08 6.593E-07 1.083E-01
 ETOT  7  -7.2585848333284    -5.408E-12 1.221E-14 8.172E-10 1.674E-07 1.083E-01

 At SCF step    7, forces are converged : 
  for the second time, max diff in force=  1.674E-07 < toldff=  1.000E-06

 Cartesian components of stress tensor (hartree/bohr^3)
  sigma(1 1)= -1.27964572E-03  sigma(3 2)= -2.72090624E-04
  sigma(2 2)= -1.27964572E-03  sigma(3 1)= -2.72090624E-04
  sigma(3 3)= -1.27964572E-03  sigma(2 1)= -2.72090624E-04


---OUTPUT-----------------------------------------------------------------------

 Cartesian coordinates (xcart) [bohr]
  0.00000000000000E+00  0.00000000000000E+00  0.00000000000000E+00
  2.28052000000000E+00  2.28052000000000E+00  2.28052000000000E+00
 Reduced coordinates (xred)
  0.00000000000000E+00  0.00000000000000E+00  0.00000000000000E+00
  2.20000000000000E-01  2.20000000000000E-01  2.20000000000000E-01
 Cartesian forces (fcart) [Ha/bohr]; max,rms= 1.08336E-01 1.08336E-01 (free atoms)
 -1.08336470017763E-01 -1.08336470017763E-01 -1.08336470017763E-01
  1.08336470017763E-01  1.08336470017763E-01  1.08336470017763E-01
 Reduced forces (fred)
  1.12301584820413E+00  1.12301584820413E+00  1.12301584820413E+00
 -1.12301584820413E+00 -1.12301584820413E+00 -1.12301584820413E+00
 Total energy (etotal) [Ha]= -7.25858483332843E+00

--- Iteration: (2/5) Internal Cycle: (1/1)
--------------------------------------------------------------------------------

---SELF-CONSISTENT-FIELD CONVERGENCE--------------------------------------------

     iter   Etot(hartree)      deltaE(h)  residm     vres2    diffor    maxfor
 ETOT  1  -7.3010343333418    -7.301E+00 2.311E-09 4.554E-01 8.436E-02 2.398E-02
 ETOT  2  -7.3011176913575    -8.336E-05 9.748E-12 9.671E-03 2.987E-03 2.697E-02
 ETOT  3  -7.3011190407536    -1.349E-06 2.183E-10 1.712E-04 4.283E-04 2.740E-02
 ETOT  4  -7.3011190745853    -3.383E-08 4.751E-12 3.162E-06 2.994E-05 2.743E-02
 ETOT  5  -7.3011190752931    -7.079E-10 4.193E-14 3.063E-08 1.900E-06 2.743E-02
 ETOT  6  -7.3011190752986    -5.440E-12 1.803E-15 8.022E-10 2.637E-07 2.743E-02
 ETOT  7  -7.3011190752988    -2.096E-13 5.290E-17 2.521E-12 1.126E-08 2.743E-02

 At SCF step    7, forces are converged : 
  for the second time, max diff in force=  1.126E-08 < toldff=  1.000E-06

 Cartesian components of stress tensor (hartree/bohr^3)
  sigma(1 1)= -1.13046490E-03  sigma(3 2)= -6.16436706E-05
  sigma(2 2)= -1.13046490E-03  sigma(3 1)= -6.16436706E-05
  sigma(3 3)= -1.13046490E-03  sigma(2 1)= -6.16436706E-05


---OUTPUT-----------------------------------------------------------------------

 Cartesian coordinates (xcart) [bohr]
 -1.08336470017763E-01 -1.08336470017763E-01 -1.08336470017763E-01
  2.38885647001776E+00  2.38885647001776E+00  2.38885647001776E+00
 Reduced coordinates (xred)
 -1.04511354445074E-02 -1.04511354445074E-02 -1.04511354445074E-02
  2.30451135444507E-01  2.30451135444507E-01  2.30451135444507E-01
 Cartesian forces (fcart) [Ha/bohr]; max,rms= 2.74266E-02 2.74266E-02 (free atoms)
 -2.74266302590581E-02 -2.74266302590581E-02 -2.74266302590581E-02
  2.74266302590581E-02  2.74266302590581E-02  2.74266302590581E-02
 Reduced forces (fred)
  2.84304449265396E-01  2.84304449265396E-01  2.84304449265396E-01
 -2.84304449265396E-01 -2.84304449265396E-01 -2.84304449265396E-01
 Total energy (etotal) [Ha]= -7.30111907529880E+00

 Difference of energy with previous step (new-old):
           Absolute (Ha)=-4.25342E-02
           Relative     =-5.84273E-03

--- Iteration: (3/5) Internal Cycle: (1/1)
--------------------------------------------------------------------------------

---SELF-CONSISTENT-FIELD CONVERGENCE--------------------------------------------

     iter   Etot(hartree)      deltaE(h)  residm     vres2    diffor    maxfor
 ETOT  1  -7.3049046142742    -7.305E+00 2.910E-09 1.310E-02 2.838E-02 9.537E-04
 ETOT  2  -7.3049057830654    -1.169E-06 6.505E-13 2.501E-04 4.374E-05 9.099E-04
 ETOT  3  -7.3049058256118    -4.255E-08 1.041E-10 1.010E-05 1.172E-06 9.088E-04
 ETOT  4  -7.3049058279598    -2.348E-09 2.718E-12 1.755E-07 1.574E-06 9.103E-04
 ETOT  5  -7.3049058279919    -3.206E-11 1.499E-14 9.403E-10 3.369E-07 9.107E-04
 ETOT  6  -7.3049058279921    -2.007E-13 8.152E-16 5.110E-12 7.297E-09 9.107E-04

 At SCF step    6, forces are converged : 
  for the second time, max diff in force=  7.297E-09 < toldff=  1.000E-06

 Cartesian components of stress tensor (hartree/bohr^3)
  sigma(1 1)= -1.11809344E-03  sigma(3 2)=  1.98326249E-06
  sigma(2 2)= -1.11809344E-03  sigma(3 1)=  1.98326249E-06
  sigma(3 3)= -1.11809344E-03  sigma(2 1)=  1.98326249E-06


---OUTPUT-----------------------------------------------------------------------

 Cartesian coordinates (xcart) [bohr]
 -1.57170799981504E-01 -1.57170799981504E-01 -1.57170799981504E-01
  2.43769079998150E+00  2.43769079998150E+00  2.43769079998150E+00
 Reduced coordinates (xred)
 -1.51621454738090E-02 -1.51621454738090E-02 -1.51621454738090E-02
  2.35162145473809E-01  2.35162145473809E-01  2.35162145473809E-01
 Cartesian forces (fcart) [Ha/bohr]; max,rms= 9.10684E-04 9.10684E-04 (free atoms)
  9.10684433420919E-04  9.10684433420919E-04  9.10684433420919E-04
 -9.10684433420919E-04 -9.10684433420919E-04 -9.10684433420919E-04
 Reduced forces (fred)
 -9.44015483684125E-03 -9.44015483684125E-03 -9.44015483684125E-03
  9.44015483684125E-03  9.44015483684125E-03  9.44015483684125E-03
 Total energy (etotal) [Ha]= -7.30490582799207E+00

 Difference of energy with previous step (new-old):
           Absolute (Ha)=-3.78675E-03
           Relative     =-5.18519E-04

--- Iteration: (4/5) Internal Cycle: (1/1)
--------------------------------------------------------------------------------

---SELF-CONSISTENT-FIELD CONVERGENCE--------------------------------------------

     iter   Etot(hartree)      deltaE(h)  residm     vres2    diffor    maxfor
 ETOT  1  -7.3049104215958    -7.305E+00 3.838E-12 1.370E-06 9.122E-04 1.491E-06
 ETOT  2  -7.3049104217182    -1.224E-10 1.122E-16 2.480E-08 6.224E-08 1.553E-06
 ETOT  3  -7.3049104217221    -3.885E-12 7.297E-16 1.015E-09 5.614E-08 1.609E-06

 At SCF step    3, forces are converged : 
  for the second time, max diff in force=  5.614E-08 < toldff=  1.000E-06

 Cartesian components of stress tensor (hartree/bohr^3)
  sigma(1 1)= -1.11808120E-03  sigma(3 2)= -3.29428832E-09
  sigma(2 2)= -1.11808120E-03  sigma(3 1)= -3.29428832E-09
  sigma(3 3)= -1.11808120E-03  sigma(2 1)= -3.29428832E-09


---OUTPUT-----------------------------------------------------------------------

 Cartesian coordinates (xcart) [bohr]
 -1.55487675757779E-01 -1.55487675757779E-01 -1.55487675757779E-01
  2.43600767575778E+00  2.43600767575778E+00  2.43600767575778E+00
 Reduced coordinates (xred)
 -1.49997757821512E-02 -1.49997757821512E-02 -1.49997757821512E-02
  2.34999775782151E-01  2.34999775782151E-01  2.34999775782151E-01
 Cartesian forces (fcart) [Ha/bohr]; max,rms= 1.60903E-06 1.60903E-06 (free atoms)
 -1.60902851256692E-06 -1.60902851256692E-06 -1.60902851256692E-06
  1.60902851256692E-06  1.60902851256692E-06  1.60902851256692E-06
 Reduced forces (fred)
  1.66791895612687E-05  1.66791895612687E-05  1.66791895612687E-05
 -1.66791895612687E-05 -1.66791895612687E-05 -1.66791895612687E-05
 Total energy (etotal) [Ha]= -7.30491042172209E+00

 Difference of energy with previous step (new-old):
           Absolute (Ha)=-4.59373E-06
           Relative     =-6.28855E-07

 At Broyd/MD step   4, gradients are converged : 
  max grad (force/stress) = 1.6090E-06 < tolmxf= 1.0000E-05 ha/bohr (free atoms)

================================================================================

 ----iterations are completed or convergence reached----

 Mean square residual over all n,k,spin=   8.9661E-17; max=  7.2969E-16
   0.0000  0.0000  0.0000    1  7.29689E-16 kpt; spin; max resid(k); each band:
  1.85E-18 7.16E-18 7.24E-19 1.15E-18 1.82E-16 1.47E-16 1.01E-18 2.07E-18
  7.30E-16 1.47E-18 1.59E-18 4.85E-19
 reduced coordinates (array xred) for    2 atoms
      -0.014999775782     -0.014999775782     -0.014999775782
       0.234999775782      0.234999775782      0.234999775782
 rms dE/dt=  1.6679E-05; max dE/dt=  1.6679E-05; dE/dt below (all hartree)
    1       0.000016679190      0.000016679190      0.000016679190
[...]
- fourwf%(pot)                   4.158   7.4      4.142   7.4          16530      -1.00    
- nonlop(apply)                  1.060   1.9      1.051   1.9          16530      -1.00    
- invars2                        0.832   1.5      0.832   1.5              8      -1.00    
- vtowfk(contrib)                0.425   0.8      0.421   0.8            432      -1.00    
- pspini                         0.331   0.6      0.330   0.6              8      -1.00    
- getghc-other                   0.304   0.5      0.306   0.5             -1      -1.00    
- fourdp                         0.270   0.5      0.276   0.5            848      -1.00    
- abinit(2)                      0.185   0.3      0.185   0.3              1      -1.00    
- timing timab                   0.139   0.2      0.138   0.2             14      -1.00    
- mkrho/=                        0.129   0.2      0.127   0.2            136      -1.00    
- forces                         0.109   0.2      0.111   0.2            136      -1.00    
- vtowfk(ssdiag)                 0.093   0.2      0.089   0.2             -1      -1.00    
- symrhg(no FFT)                 0.089   0.2      0.078   0.1            136      -1.00    
- xc:pot/=fourdp                 0.074   0.1      0.082   0.1            156      -1.00    
- stress                         0.026   0.0      0.024   0.0             20      -1.00    
- ewald                          0.020   0.0      0.020   0.0             20      -1.00    
- prep_bandfft_tabs              0.012   0.0      0.011   0.0            180      -1.00    
- ewald2 (+vdw_dftd2)            0.011   0.0      0.015   0.0             20      -1.00    
- scfcv-scprqt                   0.011   0.0      0.010   0.0            136      -1.00    
- setsym                         0.008   0.0      0.010   0.0              8      -1.00    
- newkpt(excl. rwwf   )          0.002   0.0      0.002   0.0             -1      -1.00    
- vtowfk  (1)                    0.002   0.0      0.001   0.0            432      -1.00    
- status                         0.001   0.0      0.001   0.0            208      -1.00    
- kpgsph                         0.001   0.0      0.002   0.0             48      -1.00    
- vtowfk3(contrib)               0.000   0.0      0.000   0.0             -1      -1.00    
- cgwf3-O(npw)                   0.000   0.0      0.000   0.0             -1      -1.00    
- inwffil(excl. calls)           0.000   0.0      0.000   0.0              8      -1.00    
- vtorho(MPI)                    0.000   0.0      0.001   0.0            136      -1.00    
- others (77)                    0.000   0.0      0.000   0.0             -1      -1.00    
-<END_TIMER>
-
- subtotal                       8.292  14.8      8.264  14.8

- For major independent code sections, cpu and wall times (sec),
- as well as % of the total time and number of calls 

-<BEGIN_TIMER mpi_nprocs = 4, omp_nthreads = 1, mpi_rank = world>
- cpu_time =          55.8, wall_time =          55.9
-
- routine                         cpu     %       wall     %      number of calls Gflops 
-                                                                  (-1=no count)
- fourwf%(pot)                  16.615  29.8     16.562  29.6          66120      -1.00    
- nonlop(apply)                  4.263   7.6      4.248   7.6          66120      -1.00    
- invars2                        3.360   6.0      3.363   6.0             32      -1.00    
- vtowfk(contrib)                1.704   3.1      1.684   3.0           1728      -1.00    
- pspini                         1.313   2.4      1.309   2.3             32      -1.00    
- getghc-other                   1.235   2.2      1.225   2.2             -4      -1.00    
- fourdp                         1.172   2.1      1.198   2.1           3392      -1.00    
- abinit(2)                      0.739   1.3      0.739   1.3              4      -1.00    
- timing timab                   0.553   1.0      0.556   1.0             56      -1.00    
- mkrho/=                        0.492   0.9      0.497   0.9            544      -1.00    
- forces                         0.444   0.8      0.456   0.8            544      -1.00    
- vtowfk(ssdiag)                 0.363   0.6      0.351   0.6             -4      -1.00    
- symrhg(no FFT)                 0.348   0.6      0.315   0.6            544      -1.00    
- xc:pot/=fourdp                 0.305   0.5      0.333   0.6            624      -1.00    
- stress                         0.098   0.2      0.094   0.2             80      -1.00    
- ewald                          0.079   0.1      0.080   0.1             80      -1.00    
- prep_bandfft_tabs              0.069   0.1      0.069   0.1            720      -1.00    
- ewald2 (+vdw_dftd2)            0.044   0.1      0.059   0.1             80      -1.00    
- scfcv-scprqt                   0.038   0.1      0.029   0.1            544      -1.00    
- setsym                         0.032   0.1      0.040   0.1             32      -1.00    
- newkpt(excl. rwwf   )          0.011   0.0      0.010   0.0             -4      -1.00    
- kpgsph                         0.006   0.0      0.013   0.0            192      -1.00    
- vtowfk  (1)                    0.006   0.0      0.004   0.0           1728      -1.00    
- vtorho(MPI)                    0.002   0.0      0.005   0.0            544      -1.00    
- status                         0.002   0.0      0.004   0.0            832      -1.00    
- vtowfk3(contrib)               0.000   0.0      0.000   0.0             -4      -1.00    
- cgwf3-O(npw)                   0.000   0.0      0.000   0.0             -4      -1.00    
- inwffil(excl. calls)           0.000   0.0      0.000   0.0             32      -1.00    
- others (77)                    0.000   0.0      0.000   0.0             -1      -1.00    
-<END_TIMER>

- subtotal                      33.293  59.6     33.243  59.4

 Partitioning of abinit
- abinit                        55.842 100.0     55.922 100.0              4
 
- abinit(1)                      0.186   0.3      0.187   0.3              4
- abinit(2)                      0.739   1.3      0.739   1.3              4
- indefo+macroin+invars2m        3.369   6.0      3.371   6.0              4
- abinit(4)                      0.524   0.9      0.527   0.9              4
- abinit(5)                      0.139   0.2      0.142   0.3              4
- driver                        50.291  90.1     50.356  90.0              4
- abinit(6)                      0.040   0.1      0.042   0.1              4
- timing timab                   0.553   1.0      0.556   1.0             56

- subtotal                      55.842 100.0     55.922 100.0

 Partitioning of driver
- driver                        50.291  90.1     50.356  90.0              4
 
- gstateimg                     50.273  90.0     50.338  90.0             32
- driver(aft. select case)       0.018   0.0      0.013   0.0             32

- subtotal                      50.291  90.1     50.356  90.0

 Partitioning of gstateimg+gstate
- gstateimg                     50.273  90.0     50.338  90.0             32
 
- gstate->kpgsph                 0.084   0.2      0.090   0.2             64
- gstate(pspini)                 1.313   2.4      1.309   2.3             32
- gstate  (2)                    0.022   0.0      0.020   0.0             32
- gstate(...scfcv)              48.789  87.4     48.845  87.3             32
- gstate  (3)                    0.065   0.1      0.074   0.1             32

- subtotal                      50.272  90.0     50.337  90.0

 Partitioning of scfcv
- scfcv                         48.762  87.3     48.809  87.3             80
 
- scfcv(iniloop, setvtr  )       0.269   0.5      0.278   0.5            544
- scfcv(vtorho(f))              46.377  83.1     46.399  83.0            544
- scfcv(etotfor)                 0.448   0.8      0.458   0.8           1088
- scfcv-scprqt                   0.038   0.1      0.029   0.1            544
- scfcv(rhotov)                  0.593   1.1      0.593   1.1            544
- scfcv(qui loop)                0.059   0.1      0.059   0.1            544
- scfcv(mix pot)                 0.589   1.1      0.607   1.1            464
- scfcv(afterscfloop)            0.333   0.6      0.330   0.6             80
- scfcv(outscfcv)                0.033   0.1      0.032   0.1             80

- subtotal                      48.762  87.3     48.809  87.3

 Partitioning of rhotov
- rhotov                         0.593   1.1      0.592   1.1            544
 
- rhotov(rhohxc)                 0.504   0.9      0.503   0.9            544
- rhotov(dotprod_vn)             0.008   0.0      0.013   0.0            544
- rhotov(other)                  0.080   0.1      0.075   0.1            544

- subtotal                       0.593   1.1      0.592   1.1

 Partitioning of vtorho
- vtorho                        46.376  83.0     46.396  83.0            544
 
- vtorho(bef. spin loop)         0.014   0.0      0.019   0.0            544
- vtorho(bef. kpt  loop)         0.008   0.0      0.012   0.0            544
- vtorho(bef. vtowfk)            0.094   0.2      0.068   0.1           1728
- vtowfk                        44.336  79.4     44.330  79.3           1728
- vtorho(aft. kpt loop)          0.101   0.2      0.091   0.2            544
- vtorho(newocc)                 0.591   1.1      0.605   1.1            272
- vtorho(mkrho 1)                0.827   1.5      0.844   1.5            272
- vtorho(mkrho 2)                0.382   0.7      0.405   0.7            816

- subtotal                      46.376  83.0     46.396  83.0

 Partitioning of vtowfk
- vtowfk                        44.336  79.4     44.330  79.3           1728
 
- lobpcgwf                      42.264  75.7     42.291  75.6           2208
- vtowfk(subdiago)               0.190   0.3      0.212   0.4           2208
- vtowfk(2)                      0.170   0.3      0.138   0.2             -4
- prep_nonlop%vtowfk             0.797   1.4      0.830   1.5           6912
- prep_fourwf%vtow               0.347   0.6      0.319   0.6           5184
- vtowfk(nonlocalpart)           0.017   0.0      0.014   0.0           1728
- vtowfk(3)                      0.543   1.0      0.520   0.9             -4

- subtotal                      44.336  79.4     44.330  79.3

 Partitioning of getghc
- getghc                        22.114  39.6     22.035  39.4          66120
 
- fourwf%getghc                 16.615  29.8     16.562  29.6          66120
- nonlop%getghc                  4.263   7.6      4.248   7.6          66120
- getghc-other                   1.235   2.2      1.225   2.2             -4

- subtotal                      22.114  39.6     22.035  39.4

 Partitioning of fourwf (upwards partitioning)
- fourwf                        17.094  30.6     17.028  30.5          69576
 
- fourwf%getghc                 16.615  29.8     16.562  29.6          66120
- fourwf%prep_four               0.479   0.9      0.466   0.8           3456

- subtotal                      17.094  30.6     17.028  30.5

 Partitioning of prep_getghc
- prep_getghc                   25.429  45.5     25.611  45.8          66120
 
- prep_getghc(before if)         0.440   0.8      0.408   0.7          66120
- prep_getghc(alltoall)          2.707   4.8      3.008   5.4         132240
- prep_getghc(getghc - 1 )      22.207  39.8     22.131  39.6          66120
- (other)                        0.076   0.1      0.064   0.1             -1

- subtotal                      25.429  45.5     25.611  45.8

 Partitioning of prep_fourwf
- prep_fourwf                    0.678   1.2      0.676   1.2          10368
 
- fourwf%prep_four               0.479   0.9      0.466   0.8           3456
- alltoall%prep_fo               0.166   0.3      0.187   0.3          10368

- subtotal                       0.645   1.2      0.654   1.2

 Partitioning of prep_nonlop
- prep_nonlop                    0.824   1.5      0.876   1.6           7392
 
- nonlop%prep_nonl%vtowfk        0.596   1.1      0.604   1.1           6912
- nonlop%prep_nonl%forstrn       0.027   0.0      0.039   0.1            480
- prep_nonlop(alltoall)          0.091   0.2      0.115   0.2           7392
- (other)                        0.110   0.2      0.119   0.2             -1

- subtotal                       0.824   1.5      0.876   1.6

 Partitioning of mkrho (upwards partitioning)
- mkrho                          0.827   1.5      0.844   1.5            272
 
- mkrho%vtorho                   0.827   1.5      0.844   1.5            272

- subtotal                       0.827   1.5      0.844   1.5

 Partitioning of inwffil
- inwffil                        0.012   0.0      0.011   0.0             32
 

- subtotal                       0.012   0.0      0.011   0.0

 Partitioning of newkpt
- newkpt                         0.011   0.0      0.011   0.0             32
 

- subtotal                       0.011   0.0      0.010   0.0

 Partitioning of newvtr
- newvtr                         0.584   1.0      0.605   1.1            464
 
- newvtr(before selection)       0.012   0.0      0.013   0.0            464
- newvtr(call prcref_PMA)        0.372   0.7      0.375   0.7            464
- newvtr(aft. prcref_PMA)        0.180   0.3      0.184   0.3            464
- newvtr(mean potential)         0.010   0.0      0.022   0.0            464

- subtotal                       0.584   1.0      0.605   1.1

 Partitioning of  fourdp (upwards partitioning)
- fourdp                         1.172   2.1      1.198   2.1           3392
 
- fourdp%(other)                 1.172   2.1      1.198   2.1           3392

- subtotal                       1.172   2.1      1.198   2.1

 Partitioning of afterscfloop
- afterscfloop                   0.332   0.6      0.329   0.6             80
 
- afterscfloop(forstr)           0.320   0.6      0.324   0.6             80

- subtotal                       0.332   0.6      0.329   0.6

 Partitioning of forstr
- forstr                         0.320   0.6      0.324   0.6             80
 
- forstr(forstrnps)              0.222   0.4      0.230   0.4             80
- forstr(stress)                 0.098   0.2      0.094   0.2             80

- subtotal                       0.320   0.6      0.324   0.6

 Partitioning of forstrnps
- forstrnps                      0.222   0.4      0.230   0.4             80
 
- forstrnps(bef.loop band)       0.027   0.0      0.015   0.0            240
- forstrnps(nonlop+prep_ba       0.054   0.1      0.081   0.1            480
- forstrnps(kinetic contr)       0.137   0.2      0.131   0.2            480

- subtotal                       0.222   0.4      0.230   0.4

 Partitioning of outscfcv
- outscfcv                       0.032   0.1      0.032   0.1             80
 
- outscfcv([PAW]prtden)          0.005   0.0      0.011   0.0             80

- subtotal                       0.007   0.0      0.012   0.0
-
-Synchronisation (=leave_test) and MPI calls 
- communic.MPI                   0.109   0.2      0.101   0.2           4796
-
- forstrnps:synchr               0.000   0.0      0.000   0.0             80
- mkrho :MPIrhor                 0.000   0.0      0.000   0.0            272
- alltoall%back_wf               1.974   3.5      1.959   3.5          71368
- alltoall%forw_wf               2.058   3.7      1.976   3.5          67720
-
- subtotal                       4.031   7.2      3.935   7.0

 Additional information
- timana(1)                      0.000   0.0      0.000   0.0              4
- total timab                    3.617   6.5      3.639   6.5        5091668
- fourwf                        17.094  30.6     17.028  30.5          69576
- mklocl(2)                      0.122   0.2      0.120   0.2            544
- status                         0.002   0.0      0.004   0.0            832
- newocc                         0.590   1.1      0.605   1.1            272
- nonlop(total)                  4.886   8.8      4.890   8.7          73512

 timana : in multi dataset mode, the more detailed analysis is not done.

================================================================================

 Suggested references for the acknowledgment of ABINIT usage.

 The users of ABINIT have little formal obligations with respect to the ABINIT group
 (those specified in the GNU General Public License, http://www.gnu.org/copyleft/gpl.txt).
 However, it is common practice in the scientific literature,
 to acknowledge the efforts of people that have made the research possible.
 In this spirit, please find below suggested citations of work written by ABINIT developers,
 corresponding to implementations inside of ABINIT that you have used in the present run.
 Note also that it will be of great value to readers of publications presenting these results,
 to read papers enabling them to understand the theoretical formalism and details
 of the ABINIT implementation.
 For information on why they are suggested, see also http://www.abinit.org/about/?text=acknowledgments.

 [1] Large scale ab initio calculations based on three levels of parallelization
 F. Bottin, S. Leroux, A. Knyazev, G. Zerah, Comput. Mat. Science 42, 329, (2008).
 Comment : in case paral_kgb is non-zero. Strong suggestion to cite this paper in your publications.
 This paper is also available at http://www.arxiv.org/abs/0707.3405

 [2] ABINIT : First-principles approach of materials and nanosystem properties.
 X. Gonze, B. Amadon, P.-M. Anglade, J.-M. Beuken, F. Bottin, P. Boulanger, F. Bruneval,
 D. Caliste, R. Caracas, M. Cote, T. Deutsch, L. Genovese, Ph. Ghosez, M. Giantomassi
 S. Goedecker, D.R. Hamann, P. Hermet, F. Jollet, G. Jomard, S. Leroux, M. Mancini, S. Mazevet,
 M.J.T. Oliveira, G. Onida, Y. Pouillon, T. Rangel, G.-M. Rignanese, D. Sangalli, R. Shaltaf,
 M. Torrent, M.J. Verstraete, G. Zerah, J.W. Zwanziger
 Computer Phys. Comm. 180, 2582-2615 (2009).
 Comment : the third generic paper describing the ABINIT project.
 Note that a version of this paper, that is not formatted for Computer Phys. Comm. 
 is available at http://www.abinit.org/about/ABINIT_CPC_v10.pdf .
 The licence allows the authors to put it on the Web.

 [3] A brief introduction to the ABINIT software package.
 X. Gonze, G.-M. Rignanese, M. Verstraete, J.-M. Beuken, Y. Pouillon, R. Caracas, F. Jollet,
 M. Torrent, G. Zerah, M. Mikami, Ph. Ghosez, M. Veithen, J.-Y. Raty, V. Olevano, F. Bruneval,
 L. Reining, R. Godby, G. Onida, D.R. Hamann, and D.C. Allan.
 Z. Kristallogr. 220, 558-562 (2005).
 Comment : the second generic paper describing the ABINIT project. Note that this paper
 should be cited especially if you are using the GW part of ABINIT, as several authors
 of this part are not in the list of authors of the first or third paper.
 The .pdf of the latter paper is available at http://www.abinit.org/about/zfk_0505-06_558-562.pdf.
 Note that it should not redistributed (Copyright by Oldenburg Wissenshaftverlag,
 the licence allows the authors to put it on the Web).


 And optionally :

 [4] First-principles computation of material properties : the ABINIT software project. 
 X. Gonze, J.-M. Beuken, R. Caracas, F. Detraux, M. Fuchs, G.-M. Rignanese, L. Sindic,
 M. Verstraete, G. Zerah, F. Jollet, M. Torrent, A. Roy, M. Mikami, Ph. Ghosez, J.-Y. Raty, D.C. Allan.
 Computational Materials Science 25, 478-492 (2002). http://dx.doi.org/10.1016/S0927-0256(02)00325-7
 Comment : the original paper describing the ABINIT project.

 [5] Fast radix 2, 3, 4 and 5 kernels for Fast Fourier Transformations
 on computers with overlapping multiply-add instructions.
 S. Goedecker, SIAM J. on Scientific Computing 18, 1605 (1997).
-
- Proc.   0 individual time (sec): cpu=         14.0  wall=         14.0

================================================================================

 Calculation completed.
.Delivered    0 WARNINGs and  28 COMMENTs to log file.
+Overall time at end (sec) : cpu=         56.0  wall=         56.1
