
.Version 7.9.3 of ABINIT 
.(MPI version, prepared for a x86_64_linux_gnu4.7 computer) 

.Copyright (C) 1998-2014 ABINIT group . 
 ABINIT comes with ABSOLUTELY NO WARRANTY.
 It is free software, and you are welcome to redistribute it
 under certain conditions (GNU General Public License,
 see ~abinit/COPYING or http://www.gnu.org/copyleft/gpl.txt).

 ABINIT is a project of the Universite Catholique de Louvain,
 Corning Inc. and other collaborators, see ~abinit/doc/developers/contributors.txt .
 Please read ~abinit/doc/users/acknowledgments.html for suggested
 acknowledgments of the ABINIT effort.
 For more information, see http://www.abinit.org .

.Starting date : Sat 30 Aug 2014.
- ( at 10h11 )
  
- input  file    -> t28.in
- output file    -> t28_MPI4.out
- root for input  files -> t28_MPI4i
- root for output files -> t28_MPI4o


 DATASET    1 : space group R3 (#146); Bravais hR (rhombohedral)
================================================================================
 Values of the parameters that define the memory need for DATASET  1.
   intxc =         0  ionmov =         0    iscf =        17 xclevel =         1
  lmnmax =        18   lnmax =         6   mband =        32  mffmem =         1
P  mgfft =        20   mkmem =         4 mpssoang=         3     mpw =       136
  mqgrid =      3001   natom =         2    nfft =      8000    nkpt =         4
  nloalg =         4  nspden =         1 nspinor =         2  nsppol =         1
    nsym =         3  n1xccc =         1  ntypat =         1  occopt =         1
Pmy_natom=         1
 PAW method is used; the additional fine FFT grid is defined by:
   mgfftf=        27    nfftf =     19683
================================================================================
P This job should need less than                       7.684 Mbytes of memory.
  Rough estimation (10% accuracy) of disk space for files :
_ WF disk file :      0.268 Mbytes ; DEN or POT disk file :      0.152 Mbytes.
================================================================================


 DATASET    2 : space group P1 (#  1); Bravais aP (primitive triclinic)
================================================================================
 Values of the parameters that define the memory need for DATASET  2.
   intxc =         0  ionmov =         0    iscf =        17 xclevel =         1
  lmnmax =        18   lnmax =         6   mband =        32  mffmem =         1
P  mgfft =        20   mkmem =         8 mpssoang=         3     mpw =       136
  mqgrid =      3001   natom =         2    nfft =      8000    nkpt =         8
  nloalg =         4  nspden =         4 nspinor =         2  nsppol =         1
    nsym =         1  n1xccc =         1  ntypat =         1  occopt =         1
Pmy_natom=         1
 PAW method is used; the additional fine FFT grid is defined by:
   mgfftf=        27    nfftf =     19683
================================================================================
P This job should need less than                      16.849 Mbytes of memory.
  Rough estimation (10% accuracy) of disk space for files :
_ WF disk file :      0.533 Mbytes ; DEN or POT disk file :      0.152 Mbytes.
================================================================================

--------------------------------------------------------------------------------
------------- Echo of variables that govern the present computation ------------
--------------------------------------------------------------------------------
-
- outvars: echo of selected default values                                      
-   accesswff0 =  0 , fftalg0 =112 , wfoptalg0 = 10
-
- outvars: echo of global parameters not present in the input file              
-  max_nthreads =    0
-
 -outvars: echo values of preprocessed input variables --------
            acell      9.0000000000E+00  9.0000000000E+00  9.0000000000E+00 Bohr
              amu      2.08980370E+02
             ecut      5.00000000E+00 Hartree
-          fftalg         401
      fft_opt_lob           2
           iprcch           6
              ixc           7
           jdtset        1    2
              kpt1     2.50000000E-01  2.50000000E-01  2.50000000E-01
                      -2.50000000E-01  2.50000000E-01  2.50000000E-01
                      -2.50000000E-01 -2.50000000E-01  2.50000000E-01
                      -2.50000000E-01 -2.50000000E-01 -2.50000000E-01
              kpt2     2.50000000E-01  2.50000000E-01  2.50000000E-01
                      -2.50000000E-01  2.50000000E-01  2.50000000E-01
                       2.50000000E-01 -2.50000000E-01  2.50000000E-01
                      -2.50000000E-01 -2.50000000E-01  2.50000000E-01
                       2.50000000E-01  2.50000000E-01 -2.50000000E-01
                      -2.50000000E-01  2.50000000E-01 -2.50000000E-01
                       2.50000000E-01 -2.50000000E-01 -2.50000000E-01
                      -2.50000000E-01 -2.50000000E-01 -2.50000000E-01
           kptopt           4
         kptrlatt        2    0    0      0    2    0      0    0    2
          kptrlen      1.72466966E+01
P           mkmem1          4
P           mkmem2          8
            natom           2
            nband1         32
            nband2         32
           ndtset           2
            ngfft          20      20      20
          ngfftdg          27      27      27
             nkpt1          4
             nkpt2          8
-          npband           2
-        npspinor           2
           nspden1          1
           nspden2          4
          nspinor           2
            nstep          20
             nsym1          3
             nsym2          1
           ntypat           1
              occ1     1.000000  1.000000  1.000000  1.000000  1.000000  1.000000
                       1.000000  1.000000  1.000000  1.000000  1.000000  1.000000
                       1.000000  1.000000  1.000000  1.000000  1.000000  1.000000
                       1.000000  1.000000  1.000000  1.000000  1.000000  1.000000
                       1.000000  1.000000  1.000000  1.000000  1.000000  1.000000
                       0.000000  0.000000
              occ2     1.000000  1.000000  1.000000  1.000000  1.000000  1.000000
                       1.000000  1.000000  1.000000  1.000000  1.000000  1.000000
                       1.000000  1.000000  1.000000  1.000000  1.000000  1.000000
                       1.000000  1.000000  1.000000  1.000000  1.000000  1.000000
                       1.000000  1.000000  1.000000  1.000000  1.000000  1.000000
                       0.000000  0.000000
        paral_kgb           1
        pawcpxocc           2
        pawecutdg      1.00000000E+01 Hartree
        pawspnorb           1
           prtden           0
           prteig           0
            prtwf           0
            rprim      5.5318805038E-01  0.0000000000E+00  8.3305640920E-01
                      -2.7659402519E-01  4.7907490470E-01  8.3305640920E-01
                      -2.7659402519E-01 -4.7907490470E-01  8.3305640920E-01
           shiftk      5.00000000E-01  5.00000000E-01  5.00000000E-01
          spgroup1        146
          spgroup2          1
           spinat      0.0000000000E+00  0.0000000000E+00  1.2000000000E+00
                       0.0000000000E+00  1.1000000000E+00  0.0000000000E+00
           symafm1       1    1    1
           symafm2       1
           symrel1     1  0  0   0  1  0   0  0  1       0  0  1   1  0  0   0  1  0
                       0  1  0   0  0  1   1  0  0
           symrel2     1  0  0   0  1  0   0  0  1
           tolvrs      1.00000000E-07
            typat      1  1
           useylm           1
         wfoptalg          14
              wtk1       0.12500    0.37500    0.37500    0.12500
              wtk2       0.12500    0.12500    0.12500    0.12500    0.12500    0.12500
                         0.12500    0.12500
           xangst      0.0000000000E+00  0.0000000000E+00  2.7494845596E+00
                       0.0000000000E+00  0.0000000000E+00 -2.7494845596E+00
            xcart      0.0000000000E+00  0.0000000000E+00  5.1957728242E+00
                       0.0000000000E+00  0.0000000000E+00 -5.1957728242E+00
             xred      2.3100000000E-01  2.3100000000E-01  2.3100000000E-01
                      -2.3100000000E-01 -2.3100000000E-01 -2.3100000000E-01
            znucl       83.00000

================================================================================

 chkinp: Checking input parameters for consistency, jdtset=   1.

 chkinp: Checking input parameters for consistency, jdtset=   2.

================================================================================
== DATASET  1 ==================================================================
-   nproc =    4

 Exchange-correlation functional for the present dataset will be:
  LDA: Perdew-Wang 92 LSD fit to Ceperley-Alder data - ixc=7
 Citation for XC functional:
  J.P.Perdew and Y.Wang, PRB 45, 13244 (1992)

 Real(R)+Recip(G) space primitive vectors, cartesian coordinates (Bohr,Bohr^-1):
 R(1)=  4.9786925  0.0000000  7.4975077  G(1)=  0.1339040  0.0000000  0.0444592
 R(2)= -2.4893462  4.3116741  7.4975077  G(2)= -0.0669520  0.1159642  0.0444592
 R(3)= -2.4893462 -4.3116741  7.4975077  G(3)= -0.0669520 -0.1159642  0.0444592
 Unit cell volume ucvol=  4.8283574E+02 bohr^3
 Angles (23,13,12)=  5.72500000E+01  5.72500000E+01  5.72500000E+01 degrees

 Coarse grid specifications (used for wave-functions):

 getcut: wavevector=  0.0000  0.0000  0.0000  ngfft=  20  20  20
         ecut(hartree)=      5.000   => boxcut(ratio)=   2.21156

 getcut : COMMENT -
  Note that boxcut > 2.2 ; recall that boxcut=Gcut(box)/Gcut(sphere) = 2
  is sufficient for exact treatment of convolution.
  Such a large boxcut is a waste : you could raise ecut
  e.g. ecut=    6.113754 Hartrees makes boxcut=2


 Fine grid specifications (used for densities):

 getcut: wavevector=  0.0000  0.0000  0.0000  ngfft=  27  27  27
         ecut(hartree)=     10.000   => boxcut(ratio)=   2.02940

--- Pseudopotential description ------------------------------------------------
- pspini: atom type   1  psp file is /data/ABINIT/testf_gcc47/trunk_7.9.3-private/tests/Psps_for_tests/83bi.paw
- pspatm: opening atomic psp file    /data/ABINIT/testf_gcc47/trunk_7.9.3-private/tests/Psps_for_tests/83bi.paw
- Paw atomic data for element Bi - Generated by AtomPAW + AtomPAW2Abinit v3.2.1
- 83.00000  15.00000  20080829                znucl, zion, pspdat
    7    7    2    0      1509   0.00000      pspcod,pspxc,lmax,lloc,mmax,r2well
 Pseudopotential format is: paw4
 basis_size (lnmax)=  6 (lmn_size= 18), orbitals=   0   0   1   1   2   2
 Spheres core radius: rc_sph= 2.60648143
 4 radial meshes are used:
  - mesh 1: r(i)=AA*[exp(BB*(i-1))-1], size=1509 , AA= 0.83004E-04 BB= 0.68893E-02
  - mesh 2: r(i)=AA*[exp(BB*(i-1))-1], size=1504 , AA= 0.83004E-04 BB= 0.68893E-02
  - mesh 3: r(i)=AA*[exp(BB*(i-1))-1], size=1583 , AA= 0.83004E-04 BB= 0.68893E-02
  - mesh 4: r(i)=AA*[exp(BB*(i-1))-1], size=1699 , AA= 0.83004E-04 BB= 0.68893E-02
 Shapefunction is SIN type: shapef(r)=[sin(pi*r/rshp)/(pi*r/rshp)]**2
 Radius for shape functions = sphere core radius
 Radial grid used for partial waves is grid 1
 Radial grid used for projectors is grid  2
 Radial grid used for (t)core density is grid 3
 Radial grid used for Vloc is grid 4
 Radial grid used for pseudo valence density is grid 4
 Compensation charge density is taken into account in XC energy/potential
 pspatm: atomic psp has been read  and splines computed

   3.09393003E+03                                ecore*ucvol(ha*bohr**3)
--------------------------------------------------------------------------------

P newkpt: treating     32 bands with npw=     136 for ikpt=   1 by node    0
P newkpt: treating     32 bands with npw=     125 for ikpt=   2 by node    0
P newkpt: treating     32 bands with npw=     125 for ikpt=   3 by node    0
P newkpt: treating     32 bands with npw=     136 for ikpt=   4 by node    0

_setup2: Arith. and geom. avg. npw (full set) are     127.750     127.664

================================================================================

     iter   Etot(hartree)      deltaE(h)  residm     nres2
 ETOT  1  -144.19036705540    -1.442E+02 2.398E-03 3.761E-01
 ETOT  2  -144.19686888107    -6.502E-03 3.130E-05 2.219E-02
 ETOT  3  -144.19622937268     6.395E-04 3.022E-05 4.106E-03
 ETOT  4  -144.19640580041    -1.764E-04 1.793E-06 4.073E-04
 ETOT  5  -144.19628903654     1.168E-04 7.052E-06 1.042E-04
 ETOT  6  -144.19640105259    -1.120E-04 7.226E-07 2.894E-05
 ETOT  7  -144.19641064046    -9.588E-06 3.374E-08 5.726E-06
 ETOT  8  -144.19640520445     5.436E-06 7.618E-07 1.282E-06
 ETOT  9  -144.19641103206    -5.828E-06 4.655E-09 3.388E-07
 ETOT 10  -144.19641105150    -1.945E-08 1.063E-09 1.535E-07
 ETOT 11  -144.19641101729     3.422E-08 2.379E-09 3.274E-08

 At SCF step   11       nres2   =  3.27E-08 < tolvrs=  1.00E-07 =>converged.

 Cartesian components of stress tensor (hartree/bohr^3)
  sigma(1 1)=  7.92584986E-03  sigma(3 2)=  0.00000000E+00
  sigma(2 2)=  7.92584986E-03  sigma(3 1)=  0.00000000E+00
  sigma(3 3)=  8.19279506E-03  sigma(2 1)=  0.00000000E+00


 PAW TEST:
 ==== Compensation charge inside spheres ============
 The following values must be close to each other ...
 Compensation charge over spherical meshes =     12.989847445628977
 Compensation charge over fine fft grid    =     12.989827477839411

 ==== Results concerning PAW augmentation regions ====

 Total pseudopotential strength Dij (hartree):
 Atom #  1 - Component up-up
   === REAL PART:
   1.30026  -2.95291   0.00000  -0.00010   0.00000   0.00000   0.00072   0.00000   0.00000   0.00000   0.00007   0.00000 ...
  -2.95291   6.58680   0.00000   0.00027   0.00000   0.00000  -0.00113   0.00000   0.00000   0.00000  -0.00009   0.00000 ...
   0.00000   0.00000   0.25828   0.00000   0.00000  -1.17737   0.00000   0.00000   0.00008   0.00022   0.00000   0.00000 ...
  -0.00010   0.00027   0.00000   0.25845   0.00000   0.00000  -1.17800   0.00000   0.00000   0.00000   0.00014   0.00000 ...
   0.00000   0.00000   0.00000   0.00000   0.25828   0.00000   0.00000  -1.17737  -0.00000   0.00000   0.00000   0.00022 ...
   0.00000   0.00000  -1.17737   0.00000   0.00000   5.25299   0.00000   0.00000  -0.00017  -0.00049   0.00000   0.00000 ...
   0.00072  -0.00113   0.00000  -1.17800   0.00000   0.00000   5.25621   0.00000   0.00000   0.00000  -0.00032   0.00000 ...
   0.00000   0.00000   0.00000   0.00000  -1.17737   0.00000   0.00000   5.25299   0.00000   0.00000   0.00000  -0.00049 ...
   0.00000   0.00000   0.00008   0.00000  -0.00000  -0.00017   0.00000   0.00000  -0.79873  -0.00012   0.00000   0.00000 ...
   0.00000   0.00000   0.00022   0.00000   0.00000  -0.00049   0.00000   0.00000  -0.00012  -0.79922   0.00000   0.00000 ...
   0.00007  -0.00009   0.00000   0.00014   0.00000   0.00000  -0.00032   0.00000   0.00000   0.00000  -0.79930   0.00000 ...
   0.00000   0.00000   0.00000   0.00000   0.00022   0.00000   0.00000  -0.00049   0.00000   0.00000   0.00000  -0.79922 ...
   ...  only 12  components have been written...
   === IMAGINARY PART:
  -0.00000  -0.00000  -0.00000  -0.00000  -0.00000  -0.00000  -0.00000  -0.00000  -0.00000  -0.00000  -0.00000  -0.00000 ...
   0.00000  -0.00000  -0.00000  -0.00000  -0.00000  -0.00000  -0.00000  -0.00000  -0.00000  -0.00000  -0.00000  -0.00000 ...
   0.00000   0.00000  -0.00000  -0.00000  -0.02030  -0.00000  -0.00000   0.08387  -0.00000  -0.00000  -0.00000  -0.00000 ...
   0.00000   0.00000   0.00000  -0.00000  -0.00000  -0.00000  -0.00000  -0.00000  -0.00000  -0.00000  -0.00000  -0.00000 ...
   0.00000   0.00000   0.02030   0.00000  -0.00000  -0.08387  -0.00000  -0.00000  -0.00000  -0.00000  -0.00000  -0.00000 ...
   0.00000   0.00000   0.00000   0.00000   0.08387  -0.00000  -0.00000  -0.34652  -0.00000  -0.00000  -0.00000  -0.00000 ...
   0.00000   0.00000   0.00000   0.00000   0.00000   0.00000  -0.00000  -0.00000  -0.00000  -0.00000  -0.00000  -0.00000 ...
   0.00000   0.00000  -0.08387   0.00000   0.00000   0.34652   0.00000  -0.00000  -0.00000  -0.00000  -0.00000  -0.00000 ...
   0.00000   0.00000   0.00000   0.00000   0.00000   0.00000   0.00000   0.00000  -0.00000  -0.00000  -0.00000  -0.00000 ...
   0.00000   0.00000   0.00000   0.00000   0.00000   0.00000   0.00000   0.00000   0.00000  -0.00000  -0.00000  -0.02199 ...
   0.00000   0.00000   0.00000   0.00000   0.00000   0.00000   0.00000   0.00000   0.00000   0.00000  -0.00000  -0.00000 ...
   0.00000   0.00000   0.00000   0.00000   0.00000   0.00000   0.00000   0.00000   0.00000   0.02199   0.00000  -0.00000 ...
   ...  only 12  components have been written...
 Atom #  1 - Component dwn-dwn
   === REAL PART:
   1.30026  -2.95291   0.00000  -0.00010   0.00000   0.00000   0.00072   0.00000   0.00000   0.00000   0.00007   0.00000 ...
  -2.95291   6.58680   0.00000   0.00027   0.00000   0.00000  -0.00113   0.00000   0.00000   0.00000  -0.00009   0.00000 ...
   0.00000   0.00000   0.25828   0.00000   0.00000  -1.17737   0.00000   0.00000   0.00008   0.00022   0.00000   0.00000 ...
  -0.00010   0.00027   0.00000   0.25845   0.00000   0.00000  -1.17800   0.00000   0.00000   0.00000   0.00014   0.00000 ...
   0.00000   0.00000   0.00000   0.00000   0.25828   0.00000   0.00000  -1.17737  -0.00000   0.00000   0.00000   0.00022 ...
   0.00000   0.00000  -1.17737   0.00000   0.00000   5.25299   0.00000   0.00000  -0.00017  -0.00049   0.00000   0.00000 ...
   0.00072  -0.00113   0.00000  -1.17800   0.00000   0.00000   5.25621   0.00000   0.00000   0.00000  -0.00032   0.00000 ...
   0.00000   0.00000   0.00000   0.00000  -1.17737   0.00000   0.00000   5.25299   0.00000   0.00000   0.00000  -0.00049 ...
   0.00000   0.00000   0.00008   0.00000  -0.00000  -0.00017   0.00000   0.00000  -0.79873  -0.00012   0.00000   0.00000 ...
   0.00000   0.00000   0.00022   0.00000   0.00000  -0.00049   0.00000   0.00000  -0.00012  -0.79922   0.00000   0.00000 ...
   0.00007  -0.00009   0.00000   0.00014   0.00000   0.00000  -0.00032   0.00000   0.00000   0.00000  -0.79930   0.00000 ...
   0.00000   0.00000   0.00000   0.00000   0.00022   0.00000   0.00000  -0.00049   0.00000   0.00000   0.00000  -0.79922 ...
   ...  only 12  components have been written...
   === IMAGINARY PART:
  -0.00000  -0.00000  -0.00000  -0.00000  -0.00000  -0.00000  -0.00000  -0.00000  -0.00000  -0.00000  -0.00000  -0.00000 ...
   0.00000  -0.00000  -0.00000  -0.00000  -0.00000  -0.00000  -0.00000  -0.00000  -0.00000  -0.00000  -0.00000  -0.00000 ...
   0.00000   0.00000  -0.00000  -0.00000   0.02030  -0.00000  -0.00000  -0.08387  -0.00000  -0.00000  -0.00000  -0.00000 ...
   0.00000   0.00000   0.00000  -0.00000  -0.00000  -0.00000  -0.00000  -0.00000  -0.00000  -0.00000  -0.00000  -0.00000 ...
   0.00000   0.00000  -0.02030   0.00000  -0.00000   0.08387  -0.00000  -0.00000  -0.00000  -0.00000  -0.00000  -0.00000 ...
   0.00000   0.00000   0.00000   0.00000  -0.08387  -0.00000  -0.00000   0.34652  -0.00000  -0.00000  -0.00000  -0.00000 ...
   0.00000   0.00000   0.00000   0.00000   0.00000   0.00000  -0.00000  -0.00000  -0.00000  -0.00000  -0.00000  -0.00000 ...
   0.00000   0.00000   0.08387   0.00000   0.00000  -0.34652   0.00000  -0.00000  -0.00000  -0.00000  -0.00000  -0.00000 ...
   0.00000   0.00000   0.00000   0.00000   0.00000   0.00000   0.00000   0.00000  -0.00000  -0.00000  -0.00000  -0.00000 ...
   0.00000   0.00000   0.00000   0.00000   0.00000   0.00000   0.00000   0.00000   0.00000  -0.00000  -0.00000   0.02199 ...
   0.00000   0.00000   0.00000   0.00000   0.00000   0.00000   0.00000   0.00000   0.00000   0.00000  -0.00000  -0.00000 ...
   0.00000   0.00000   0.00000   0.00000   0.00000   0.00000   0.00000   0.00000   0.00000  -0.02199   0.00000  -0.00000 ...
   ...  only 12  components have been written...
 Atom #  1 - Component up-dwn
   === REAL PART:
   0.00000   0.00000   0.00000   0.00000   0.00000   0.00000   0.00000   0.00000   0.00000   0.00000   0.00000   0.00000 ...
   0.00000   0.00000   0.00000   0.00000   0.00000   0.00000   0.00000   0.00000   0.00000   0.00000   0.00000   0.00000 ...
   0.00000   0.00000   0.00000   0.00000   0.00000   0.00000   0.00000   0.00000   0.00000   0.00000   0.00000   0.00000 ...
   0.00000   0.00000   0.00000   0.00000   0.02030   0.00000   0.00000  -0.08387   0.00000   0.00000   0.00000   0.00000 ...
   0.00000   0.00000   0.00000  -0.02030   0.00000   0.00000   0.08387   0.00000   0.00000   0.00000   0.00000   0.00000 ...
   0.00000   0.00000   0.00000   0.00000   0.00000   0.00000   0.00000   0.00000   0.00000   0.00000   0.00000   0.00000 ...
   0.00000   0.00000   0.00000   0.00000  -0.08387   0.00000   0.00000   0.34652   0.00000   0.00000   0.00000   0.00000 ...
   0.00000   0.00000   0.00000   0.08387   0.00000   0.00000  -0.34652   0.00000   0.00000   0.00000   0.00000   0.00000 ...
   0.00000   0.00000   0.00000   0.00000   0.00000   0.00000   0.00000   0.00000   0.00000  -0.02199   0.00000   0.00000 ...
   0.00000   0.00000   0.00000   0.00000   0.00000   0.00000   0.00000   0.00000   0.02199   0.00000   0.00000   0.00000 ...
   0.00000   0.00000   0.00000   0.00000   0.00000   0.00000   0.00000   0.00000   0.00000   0.00000   0.00000   0.03809 ...
   0.00000   0.00000   0.00000   0.00000   0.00000   0.00000   0.00000   0.00000   0.00000   0.00000  -0.03809   0.00000 ...
   ...  only 12  components have been written...
   === IMAGINARY PART:
  -0.00000  -0.00000  -0.00000  -0.00000  -0.00000  -0.00000  -0.00000  -0.00000  -0.00000  -0.00000  -0.00000  -0.00000 ...
   0.00000  -0.00000  -0.00000  -0.00000  -0.00000  -0.00000  -0.00000  -0.00000  -0.00000  -0.00000  -0.00000  -0.00000 ...
   0.00000   0.00000  -0.00000   0.02030  -0.00000  -0.00000  -0.08387  -0.00000  -0.00000  -0.00000  -0.00000  -0.00000 ...
   0.00000   0.00000  -0.02030  -0.00000  -0.00000   0.08387  -0.00000  -0.00000  -0.00000  -0.00000  -0.00000  -0.00000 ...
   0.00000   0.00000   0.00000   0.00000  -0.00000  -0.00000  -0.00000  -0.00000  -0.00000  -0.00000  -0.00000  -0.00000 ...
   0.00000   0.00000   0.00000  -0.08387   0.00000  -0.00000   0.34652  -0.00000  -0.00000  -0.00000  -0.00000  -0.00000 ...
   0.00000   0.00000   0.08387   0.00000   0.00000  -0.34652  -0.00000  -0.00000  -0.00000  -0.00000  -0.00000  -0.00000 ...
   0.00000   0.00000   0.00000   0.00000   0.00000   0.00000   0.00000  -0.00000  -0.00000  -0.00000  -0.00000  -0.00000 ...
   0.00000   0.00000   0.00000   0.00000   0.00000   0.00000   0.00000   0.00000  -0.00000  -0.00000  -0.00000   0.02199 ...
   0.00000   0.00000   0.00000   0.00000   0.00000   0.00000   0.00000   0.00000   0.00000  -0.00000   0.03809  -0.00000 ...
   0.00000   0.00000   0.00000   0.00000   0.00000   0.00000   0.00000   0.00000   0.00000  -0.03809  -0.00000  -0.00000 ...
   0.00000   0.00000   0.00000   0.00000   0.00000   0.00000   0.00000   0.00000  -0.02199   0.00000   0.00000  -0.00000 ...
   ...  only 12  components have been written...
 Atom #  1 - Component dwn-up
   === REAL PART:
   0.00000   0.00000   0.00000   0.00000   0.00000   0.00000   0.00000   0.00000   0.00000   0.00000   0.00000   0.00000 ...
   0.00000   0.00000   0.00000   0.00000   0.00000   0.00000   0.00000   0.00000   0.00000   0.00000   0.00000   0.00000 ...
   0.00000   0.00000   0.00000   0.00000   0.00000   0.00000   0.00000   0.00000   0.00000   0.00000   0.00000   0.00000 ...
   0.00000   0.00000   0.00000   0.00000  -0.02030   0.00000   0.00000   0.08387   0.00000   0.00000   0.00000   0.00000 ...
   0.00000   0.00000   0.00000   0.02030   0.00000   0.00000  -0.08387   0.00000   0.00000   0.00000   0.00000   0.00000 ...
   0.00000   0.00000   0.00000   0.00000   0.00000   0.00000   0.00000   0.00000   0.00000   0.00000   0.00000   0.00000 ...
   0.00000   0.00000   0.00000   0.00000   0.08387   0.00000   0.00000  -0.34652   0.00000   0.00000   0.00000   0.00000 ...
   0.00000   0.00000   0.00000  -0.08387   0.00000   0.00000   0.34652   0.00000   0.00000   0.00000   0.00000   0.00000 ...
   0.00000   0.00000   0.00000   0.00000   0.00000   0.00000   0.00000   0.00000   0.00000   0.02199   0.00000   0.00000 ...
   0.00000   0.00000   0.00000   0.00000   0.00000   0.00000   0.00000   0.00000  -0.02199   0.00000   0.00000   0.00000 ...
   0.00000   0.00000   0.00000   0.00000   0.00000   0.00000   0.00000   0.00000   0.00000   0.00000   0.00000  -0.03809 ...
   0.00000   0.00000   0.00000   0.00000   0.00000   0.00000   0.00000   0.00000   0.00000   0.00000   0.03809   0.00000 ...
   ...  only 12  components have been written...
   === IMAGINARY PART:
  -0.00000  -0.00000  -0.00000  -0.00000  -0.00000  -0.00000  -0.00000  -0.00000  -0.00000  -0.00000  -0.00000  -0.00000 ...
   0.00000  -0.00000  -0.00000  -0.00000  -0.00000  -0.00000  -0.00000  -0.00000  -0.00000  -0.00000  -0.00000  -0.00000 ...
   0.00000   0.00000  -0.00000   0.02030  -0.00000  -0.00000  -0.08387  -0.00000  -0.00000  -0.00000  -0.00000  -0.00000 ...
   0.00000   0.00000  -0.02030  -0.00000  -0.00000   0.08387  -0.00000  -0.00000  -0.00000  -0.00000  -0.00000  -0.00000 ...
   0.00000   0.00000   0.00000   0.00000  -0.00000  -0.00000  -0.00000  -0.00000  -0.00000  -0.00000  -0.00000  -0.00000 ...
   0.00000   0.00000   0.00000  -0.08387   0.00000  -0.00000   0.34652  -0.00000  -0.00000  -0.00000  -0.00000  -0.00000 ...
   0.00000   0.00000   0.08387   0.00000   0.00000  -0.34652  -0.00000  -0.00000  -0.00000  -0.00000  -0.00000  -0.00000 ...
   0.00000   0.00000   0.00000   0.00000   0.00000   0.00000   0.00000  -0.00000  -0.00000  -0.00000  -0.00000  -0.00000 ...
   0.00000   0.00000   0.00000   0.00000   0.00000   0.00000   0.00000   0.00000  -0.00000  -0.00000  -0.00000   0.02199 ...
   0.00000   0.00000   0.00000   0.00000   0.00000   0.00000   0.00000   0.00000   0.00000  -0.00000   0.03809  -0.00000 ...
   0.00000   0.00000   0.00000   0.00000   0.00000   0.00000   0.00000   0.00000   0.00000  -0.03809  -0.00000  -0.00000 ...
   0.00000   0.00000   0.00000   0.00000   0.00000   0.00000   0.00000   0.00000  -0.02199   0.00000   0.00000  -0.00000 ...
   ...  only 12  components have been written...
 Atom #  2 - Component up-up
   === REAL PART:
   1.30026  -2.95291   0.00000   0.00010   0.00000   0.00000  -0.00072   0.00000   0.00000   0.00000   0.00007   0.00000 ...
  -2.95291   6.58680   0.00000  -0.00027   0.00000   0.00000   0.00113   0.00000   0.00000   0.00000  -0.00009   0.00000 ...
   0.00000   0.00000   0.25828   0.00000   0.00000  -1.17737   0.00000   0.00000  -0.00008  -0.00022   0.00000   0.00000 ...
   0.00010  -0.00027   0.00000   0.25845   0.00000   0.00000  -1.17800   0.00000   0.00000   0.00000  -0.00014   0.00000 ...
   0.00000   0.00000   0.00000   0.00000   0.25828   0.00000   0.00000  -1.17737  -0.00000   0.00000   0.00000  -0.00022 ...
   0.00000   0.00000  -1.17737   0.00000   0.00000   5.25299   0.00000   0.00000   0.00017   0.00049   0.00000   0.00000 ...
  -0.00072   0.00113   0.00000  -1.17800   0.00000   0.00000   5.25621   0.00000   0.00000   0.00000   0.00032   0.00000 ...
   0.00000   0.00000   0.00000   0.00000  -1.17737   0.00000   0.00000   5.25299   0.00000   0.00000   0.00000   0.00049 ...
   0.00000   0.00000  -0.00008   0.00000  -0.00000   0.00017   0.00000   0.00000  -0.79874  -0.00012   0.00000   0.00000 ...
   0.00000   0.00000  -0.00022   0.00000   0.00000   0.00049   0.00000   0.00000  -0.00012  -0.79922   0.00000   0.00000 ...
   0.00007  -0.00009   0.00000  -0.00014   0.00000   0.00000   0.00032   0.00000   0.00000   0.00000  -0.79931   0.00000 ...
   0.00000   0.00000   0.00000   0.00000  -0.00022   0.00000   0.00000   0.00049   0.00000   0.00000   0.00000  -0.79922 ...
   ...  only 12  components have been written...
   === IMAGINARY PART:
  -0.00000  -0.00000  -0.00000  -0.00000  -0.00000  -0.00000  -0.00000  -0.00000  -0.00000  -0.00000  -0.00000  -0.00000 ...
   0.00000  -0.00000  -0.00000  -0.00000  -0.00000  -0.00000  -0.00000  -0.00000  -0.00000  -0.00000  -0.00000  -0.00000 ...
   0.00000   0.00000  -0.00000  -0.00000  -0.02030  -0.00000  -0.00000   0.08387  -0.00000  -0.00000  -0.00000  -0.00000 ...
   0.00000   0.00000   0.00000  -0.00000  -0.00000  -0.00000  -0.00000  -0.00000  -0.00000  -0.00000  -0.00000  -0.00000 ...
   0.00000   0.00000   0.02030   0.00000  -0.00000  -0.08387  -0.00000  -0.00000  -0.00000  -0.00000  -0.00000  -0.00000 ...
   0.00000   0.00000   0.00000   0.00000   0.08387  -0.00000  -0.00000  -0.34652  -0.00000  -0.00000  -0.00000  -0.00000 ...
   0.00000   0.00000   0.00000   0.00000   0.00000   0.00000  -0.00000  -0.00000  -0.00000  -0.00000  -0.00000  -0.00000 ...
   0.00000   0.00000  -0.08387   0.00000   0.00000   0.34652   0.00000  -0.00000  -0.00000  -0.00000  -0.00000  -0.00000 ...
   0.00000   0.00000   0.00000   0.00000   0.00000   0.00000   0.00000   0.00000  -0.00000  -0.00000  -0.00000  -0.00000 ...
   0.00000   0.00000   0.00000   0.00000   0.00000   0.00000   0.00000   0.00000   0.00000  -0.00000  -0.00000  -0.02199 ...
   0.00000   0.00000   0.00000   0.00000   0.00000   0.00000   0.00000   0.00000   0.00000   0.00000  -0.00000  -0.00000 ...
   0.00000   0.00000   0.00000   0.00000   0.00000   0.00000   0.00000   0.00000   0.00000   0.02199   0.00000  -0.00000 ...
   ...  only 12  components have been written...
 Atom #  2 - Component dwn-dwn
   === REAL PART:
   1.30026  -2.95291   0.00000   0.00010   0.00000   0.00000  -0.00072   0.00000   0.00000   0.00000   0.00007   0.00000 ...
  -2.95291   6.58680   0.00000  -0.00027   0.00000   0.00000   0.00113   0.00000   0.00000   0.00000  -0.00009   0.00000 ...
   0.00000   0.00000   0.25828   0.00000   0.00000  -1.17737   0.00000   0.00000  -0.00008  -0.00022   0.00000   0.00000 ...
   0.00010  -0.00027   0.00000   0.25845   0.00000   0.00000  -1.17800   0.00000   0.00000   0.00000  -0.00014   0.00000 ...
   0.00000   0.00000   0.00000   0.00000   0.25828   0.00000   0.00000  -1.17737  -0.00000   0.00000   0.00000  -0.00022 ...
   0.00000   0.00000  -1.17737   0.00000   0.00000   5.25299   0.00000   0.00000   0.00017   0.00049   0.00000   0.00000 ...
  -0.00072   0.00113   0.00000  -1.17800   0.00000   0.00000   5.25621   0.00000   0.00000   0.00000   0.00032   0.00000 ...
   0.00000   0.00000   0.00000   0.00000  -1.17737   0.00000   0.00000   5.25299   0.00000   0.00000   0.00000   0.00049 ...
   0.00000   0.00000  -0.00008   0.00000  -0.00000   0.00017   0.00000   0.00000  -0.79874  -0.00012   0.00000   0.00000 ...
   0.00000   0.00000  -0.00022   0.00000   0.00000   0.00049   0.00000   0.00000  -0.00012  -0.79922   0.00000   0.00000 ...
   0.00007  -0.00009   0.00000  -0.00014   0.00000   0.00000   0.00032   0.00000   0.00000   0.00000  -0.79931   0.00000 ...
   0.00000   0.00000   0.00000   0.00000  -0.00022   0.00000   0.00000   0.00049   0.00000   0.00000   0.00000  -0.79922 ...
   ...  only 12  components have been written...
   === IMAGINARY PART:
  -0.00000  -0.00000  -0.00000  -0.00000  -0.00000  -0.00000  -0.00000  -0.00000  -0.00000  -0.00000  -0.00000  -0.00000 ...
   0.00000  -0.00000  -0.00000  -0.00000  -0.00000  -0.00000  -0.00000  -0.00000  -0.00000  -0.00000  -0.00000  -0.00000 ...
   0.00000   0.00000  -0.00000  -0.00000   0.02030  -0.00000  -0.00000  -0.08387  -0.00000  -0.00000  -0.00000  -0.00000 ...
   0.00000   0.00000   0.00000  -0.00000  -0.00000  -0.00000  -0.00000  -0.00000  -0.00000  -0.00000  -0.00000  -0.00000 ...
   0.00000   0.00000  -0.02030   0.00000  -0.00000   0.08387  -0.00000  -0.00000  -0.00000  -0.00000  -0.00000  -0.00000 ...
   0.00000   0.00000   0.00000   0.00000  -0.08387  -0.00000  -0.00000   0.34652  -0.00000  -0.00000  -0.00000  -0.00000 ...
   0.00000   0.00000   0.00000   0.00000   0.00000   0.00000  -0.00000  -0.00000  -0.00000  -0.00000  -0.00000  -0.00000 ...
   0.00000   0.00000   0.08387   0.00000   0.00000  -0.34652   0.00000  -0.00000  -0.00000  -0.00000  -0.00000  -0.00000 ...
   0.00000   0.00000   0.00000   0.00000   0.00000   0.00000   0.00000   0.00000  -0.00000  -0.00000  -0.00000  -0.00000 ...
   0.00000   0.00000   0.00000   0.00000   0.00000   0.00000   0.00000   0.00000   0.00000  -0.00000  -0.00000   0.02199 ...
   0.00000   0.00000   0.00000   0.00000   0.00000   0.00000   0.00000   0.00000   0.00000   0.00000  -0.00000  -0.00000 ...
   0.00000   0.00000   0.00000   0.00000   0.00000   0.00000   0.00000   0.00000   0.00000  -0.02199   0.00000  -0.00000 ...
   ...  only 12  components have been written...
 Atom #  2 - Component up-dwn
   === REAL PART:
   0.00000   0.00000   0.00000   0.00000   0.00000   0.00000   0.00000   0.00000   0.00000   0.00000   0.00000   0.00000 ...
   0.00000   0.00000   0.00000   0.00000   0.00000   0.00000   0.00000   0.00000   0.00000   0.00000   0.00000   0.00000 ...
   0.00000   0.00000   0.00000   0.00000   0.00000   0.00000   0.00000   0.00000   0.00000   0.00000   0.00000   0.00000 ...
   0.00000   0.00000   0.00000   0.00000   0.02030   0.00000   0.00000  -0.08387   0.00000   0.00000   0.00000   0.00000 ...
   0.00000   0.00000   0.00000  -0.02030   0.00000   0.00000   0.08387   0.00000   0.00000   0.00000   0.00000   0.00000 ...
   0.00000   0.00000   0.00000   0.00000   0.00000   0.00000   0.00000   0.00000   0.00000   0.00000   0.00000   0.00000 ...
   0.00000   0.00000   0.00000   0.00000  -0.08387   0.00000   0.00000   0.34652   0.00000   0.00000   0.00000   0.00000 ...
   0.00000   0.00000   0.00000   0.08387   0.00000   0.00000  -0.34652   0.00000   0.00000   0.00000   0.00000   0.00000 ...
   0.00000   0.00000   0.00000   0.00000   0.00000   0.00000   0.00000   0.00000   0.00000  -0.02199   0.00000   0.00000 ...
   0.00000   0.00000   0.00000   0.00000   0.00000   0.00000   0.00000   0.00000   0.02199   0.00000   0.00000   0.00000 ...
   0.00000   0.00000   0.00000   0.00000   0.00000   0.00000   0.00000   0.00000   0.00000   0.00000   0.00000   0.03809 ...
   0.00000   0.00000   0.00000   0.00000   0.00000   0.00000   0.00000   0.00000   0.00000   0.00000  -0.03809   0.00000 ...
   ...  only 12  components have been written...
   === IMAGINARY PART:
  -0.00000  -0.00000  -0.00000  -0.00000  -0.00000  -0.00000  -0.00000  -0.00000  -0.00000  -0.00000  -0.00000  -0.00000 ...
   0.00000  -0.00000  -0.00000  -0.00000  -0.00000  -0.00000  -0.00000  -0.00000  -0.00000  -0.00000  -0.00000  -0.00000 ...
   0.00000   0.00000  -0.00000   0.02030  -0.00000  -0.00000  -0.08387  -0.00000  -0.00000  -0.00000  -0.00000  -0.00000 ...
   0.00000   0.00000  -0.02030  -0.00000  -0.00000   0.08387  -0.00000  -0.00000  -0.00000  -0.00000  -0.00000  -0.00000 ...
   0.00000   0.00000   0.00000   0.00000  -0.00000  -0.00000  -0.00000  -0.00000  -0.00000  -0.00000  -0.00000  -0.00000 ...
   0.00000   0.00000   0.00000  -0.08387   0.00000  -0.00000   0.34652  -0.00000  -0.00000  -0.00000  -0.00000  -0.00000 ...
   0.00000   0.00000   0.08387   0.00000   0.00000  -0.34652  -0.00000  -0.00000  -0.00000  -0.00000  -0.00000  -0.00000 ...
   0.00000   0.00000   0.00000   0.00000   0.00000   0.00000   0.00000  -0.00000  -0.00000  -0.00000  -0.00000  -0.00000 ...
   0.00000   0.00000   0.00000   0.00000   0.00000   0.00000   0.00000   0.00000  -0.00000  -0.00000  -0.00000   0.02199 ...
   0.00000   0.00000   0.00000   0.00000   0.00000   0.00000   0.00000   0.00000   0.00000  -0.00000   0.03809  -0.00000 ...
   0.00000   0.00000   0.00000   0.00000   0.00000   0.00000   0.00000   0.00000   0.00000  -0.03809  -0.00000  -0.00000 ...
   0.00000   0.00000   0.00000   0.00000   0.00000   0.00000   0.00000   0.00000  -0.02199   0.00000   0.00000  -0.00000 ...
   ...  only 12  components have been written...
 Atom #  2 - Component dwn-up
   === REAL PART:
   0.00000   0.00000   0.00000   0.00000   0.00000   0.00000   0.00000   0.00000   0.00000   0.00000   0.00000   0.00000 ...
   0.00000   0.00000   0.00000   0.00000   0.00000   0.00000   0.00000   0.00000   0.00000   0.00000   0.00000   0.00000 ...
   0.00000   0.00000   0.00000   0.00000   0.00000   0.00000   0.00000   0.00000   0.00000   0.00000   0.00000   0.00000 ...
   0.00000   0.00000   0.00000   0.00000  -0.02030   0.00000   0.00000   0.08387   0.00000   0.00000   0.00000   0.00000 ...
   0.00000   0.00000   0.00000   0.02030   0.00000   0.00000  -0.08387   0.00000   0.00000   0.00000   0.00000   0.00000 ...
   0.00000   0.00000   0.00000   0.00000   0.00000   0.00000   0.00000   0.00000   0.00000   0.00000   0.00000   0.00000 ...
   0.00000   0.00000   0.00000   0.00000   0.08387   0.00000   0.00000  -0.34652   0.00000   0.00000   0.00000   0.00000 ...
   0.00000   0.00000   0.00000  -0.08387   0.00000   0.00000   0.34652   0.00000   0.00000   0.00000   0.00000   0.00000 ...
   0.00000   0.00000   0.00000   0.00000   0.00000   0.00000   0.00000   0.00000   0.00000   0.02199   0.00000   0.00000 ...
   0.00000   0.00000   0.00000   0.00000   0.00000   0.00000   0.00000   0.00000  -0.02199   0.00000   0.00000   0.00000 ...
   0.00000   0.00000   0.00000   0.00000   0.00000   0.00000   0.00000   0.00000   0.00000   0.00000   0.00000  -0.03809 ...
   0.00000   0.00000   0.00000   0.00000   0.00000   0.00000   0.00000   0.00000   0.00000   0.00000   0.03809   0.00000 ...
   ...  only 12  components have been written...
   === IMAGINARY PART:
  -0.00000  -0.00000  -0.00000  -0.00000  -0.00000  -0.00000  -0.00000  -0.00000  -0.00000  -0.00000  -0.00000  -0.00000 ...
   0.00000  -0.00000  -0.00000  -0.00000  -0.00000  -0.00000  -0.00000  -0.00000  -0.00000  -0.00000  -0.00000  -0.00000 ...
   0.00000   0.00000  -0.00000   0.02030  -0.00000  -0.00000  -0.08387  -0.00000  -0.00000  -0.00000  -0.00000  -0.00000 ...
   0.00000   0.00000  -0.02030  -0.00000  -0.00000   0.08387  -0.00000  -0.00000  -0.00000  -0.00000  -0.00000  -0.00000 ...
   0.00000   0.00000   0.00000   0.00000  -0.00000  -0.00000  -0.00000  -0.00000  -0.00000  -0.00000  -0.00000  -0.00000 ...
   0.00000   0.00000   0.00000  -0.08387   0.00000  -0.00000   0.34652  -0.00000  -0.00000  -0.00000  -0.00000  -0.00000 ...
   0.00000   0.00000   0.08387   0.00000   0.00000  -0.34652  -0.00000  -0.00000  -0.00000  -0.00000  -0.00000  -0.00000 ...
   0.00000   0.00000   0.00000   0.00000   0.00000   0.00000   0.00000  -0.00000  -0.00000  -0.00000  -0.00000  -0.00000 ...
   0.00000   0.00000   0.00000   0.00000   0.00000   0.00000   0.00000   0.00000  -0.00000  -0.00000  -0.00000   0.02199 ...
   0.00000   0.00000   0.00000   0.00000   0.00000   0.00000   0.00000   0.00000   0.00000  -0.00000   0.03809  -0.00000 ...
   0.00000   0.00000   0.00000   0.00000   0.00000   0.00000   0.00000   0.00000   0.00000  -0.03809  -0.00000  -0.00000 ...
   0.00000   0.00000   0.00000   0.00000   0.00000   0.00000   0.00000   0.00000  -0.02199   0.00000   0.00000  -0.00000 ...
   ...  only 12  components have been written...


 Augmentation waves occupancies Rhoij:
 Atom #  1 - Component dens (n)
   === REAL PART:
   2.00386  -0.02316   0.00000  -0.00128   0.00000   0.00000  -0.00134   0.00000   0.00000   0.00000   0.00199   0.00000 ...
  -0.02316   0.00185   0.00000  -0.00301   0.00000   0.00000  -0.00033   0.00000   0.00000   0.00000   0.00346   0.00000 ...
   0.00000   0.00000   1.10019   0.00000   0.00000  -0.00731   0.00000  -0.00000   0.00959   0.00952   0.00000   0.00000 ...
  -0.00128  -0.00301   0.00000   0.98028   0.00000   0.00000  -0.00974   0.00000   0.00000   0.00000   0.00285   0.00000 ...
   0.00000   0.00000   0.00000   0.00000   1.10019   0.00000   0.00000  -0.00731   0.00000  -0.00000   0.00000   0.00952 ...
   0.00000   0.00000  -0.00731   0.00000   0.00000   0.00275   0.00000   0.00000  -0.00144  -0.00117   0.00000   0.00000 ...
  -0.00134  -0.00033   0.00000  -0.00974   0.00000   0.00000   0.00256   0.00000   0.00000   0.00000   0.00094   0.00000 ...
   0.00000   0.00000  -0.00000   0.00000  -0.00731   0.00000   0.00000   0.00275   0.00000  -0.00000   0.00000  -0.00117 ...
   0.00000   0.00000   0.00959   0.00000   0.00000  -0.00144   0.00000   0.00000   2.02350   0.00087   0.00000  -0.00000 ...
   0.00000   0.00000   0.00952   0.00000  -0.00000  -0.00117   0.00000  -0.00000   0.00087   2.02288   0.00000   0.00000 ...
   0.00199   0.00346   0.00000   0.00285   0.00000   0.00000   0.00094   0.00000   0.00000   0.00000   2.02297   0.00000 ...
   0.00000   0.00000   0.00000   0.00000   0.00952   0.00000   0.00000  -0.00117  -0.00000   0.00000   0.00000   2.02288 ...
   ...  only 12  components have been written...
   === IMAGINARY PART:
  -0.00000  -0.00000  -0.00000  -0.00000  -0.00000  -0.00000  -0.00000  -0.00000  -0.00000  -0.00000  -0.00000  -0.00000 ...
   0.00000  -0.00000  -0.00000  -0.00000  -0.00000  -0.00000   0.00000  -0.00000  -0.00000  -0.00000  -0.00000  -0.00000 ...
   0.00000   0.00000  -0.00000  -0.00000  -0.00000  -0.00000  -0.00000   0.00000  -0.00000  -0.00000  -0.00000  -0.00000 ...
   0.00000   0.00000   0.00000  -0.00000  -0.00000  -0.00000  -0.00000  -0.00000  -0.00000  -0.00000   0.00000  -0.00000 ...
   0.00000   0.00000   0.00000   0.00000  -0.00000  -0.00000  -0.00000  -0.00000  -0.00000   0.00000  -0.00000  -0.00000 ...
   0.00000   0.00000   0.00000   0.00000   0.00000  -0.00000  -0.00000   0.00000  -0.00000  -0.00000  -0.00000  -0.00000 ...
   0.00000  -0.00000   0.00000   0.00000   0.00000   0.00000  -0.00000  -0.00000  -0.00000  -0.00000   0.00000  -0.00000 ...
   0.00000   0.00000  -0.00000   0.00000   0.00000  -0.00000   0.00000  -0.00000  -0.00000   0.00000  -0.00000  -0.00000 ...
   0.00000   0.00000   0.00000   0.00000   0.00000   0.00000   0.00000   0.00000  -0.00000  -0.00000  -0.00000   0.00000 ...
   0.00000   0.00000   0.00000   0.00000  -0.00000   0.00000   0.00000  -0.00000   0.00000  -0.00000  -0.00000   0.00000 ...
   0.00000   0.00000   0.00000  -0.00000   0.00000   0.00000  -0.00000   0.00000   0.00000   0.00000  -0.00000  -0.00000 ...
   0.00000   0.00000   0.00000   0.00000   0.00000   0.00000   0.00000   0.00000  -0.00000  -0.00000   0.00000  -0.00000 ...
   ...  only 12  components have been written...
 Atom #  1 - Component magn (x)
   === REAL PART:
   0.00000   0.00000  -0.00000   0.00000   0.00000  -0.00000   0.00000  -0.00000  -0.00000  -0.00000   0.00000   0.00000 ...
   0.00000   0.00000  -0.00000   0.00000   0.00000  -0.00000   0.00000   0.00000  -0.00000  -0.00000   0.00000   0.00000 ...
  -0.00000  -0.00000  -0.00000  -0.00000  -0.00000  -0.00000   0.00000  -0.00000   0.00000  -0.00000  -0.00000  -0.00000 ...
   0.00000   0.00000  -0.00000   0.00000   0.00000   0.00000   0.00000   0.00000  -0.00000  -0.00000   0.00000   0.00000 ...
   0.00000   0.00000  -0.00000   0.00000   0.00000  -0.00000   0.00000   0.00000   0.00000  -0.00000  -0.00000   0.00000 ...
  -0.00000  -0.00000  -0.00000   0.00000  -0.00000  -0.00000   0.00000  -0.00000   0.00000  -0.00000  -0.00000  -0.00000 ...
   0.00000   0.00000   0.00000   0.00000   0.00000   0.00000   0.00000   0.00000  -0.00000   0.00000   0.00000   0.00000 ...
  -0.00000   0.00000  -0.00000   0.00000   0.00000  -0.00000   0.00000   0.00000   0.00000  -0.00000  -0.00000   0.00000 ...
  -0.00000  -0.00000   0.00000  -0.00000   0.00000   0.00000  -0.00000   0.00000  -0.00000   0.00000  -0.00000   0.00000 ...
  -0.00000  -0.00000  -0.00000  -0.00000  -0.00000  -0.00000   0.00000  -0.00000   0.00000   0.00000   0.00000  -0.00000 ...
   0.00000   0.00000  -0.00000   0.00000  -0.00000  -0.00000   0.00000  -0.00000  -0.00000   0.00000   0.00000  -0.00000 ...
   0.00000   0.00000  -0.00000   0.00000   0.00000  -0.00000   0.00000   0.00000   0.00000  -0.00000  -0.00000  -0.00000 ...
   ...  only 12  components have been written...
   === IMAGINARY PART:
  -0.00000  -0.00000   0.00160  -0.00000  -0.00000  -0.00009  -0.00000  -0.00000  -0.00042  -0.00007  -0.00000  -0.00000 ...
   0.00000  -0.00000  -0.00026  -0.00000  -0.00000  -0.00000  -0.00000  -0.00000   0.00005  -0.00014  -0.00000  -0.00001 ...
  -0.00160   0.00026  -0.00000   0.16259   0.00000  -0.00000  -0.03399  -0.00005   0.00000   0.00000  -0.00031  -0.00072 ...
   0.00000   0.00000  -0.16259  -0.00000  -0.00000   0.03256  -0.00000  -0.00000   0.00089   0.00060  -0.00000  -0.00000 ...
   0.00000   0.00000  -0.00000   0.00000  -0.00000  -0.00005   0.00000   0.00000   0.00107  -0.00072   0.00001  -0.00000 ...
   0.00009   0.00000   0.00000  -0.03256   0.00005  -0.00000   0.00141  -0.00000   0.00000  -0.00000  -0.00001  -0.00003 ...
   0.00000   0.00000   0.03399   0.00000  -0.00000  -0.00141  -0.00000  -0.00000   0.00048   0.00037  -0.00000  -0.00000 ...
   0.00000   0.00000   0.00005   0.00000  -0.00000   0.00000   0.00000  -0.00000   0.00002  -0.00003   0.00000   0.00000 ...
   0.00042  -0.00005  -0.00000  -0.00089  -0.00107  -0.00000  -0.00048  -0.00002  -0.00000  -0.00000  -0.00008   0.00093 ...
   0.00007   0.00014  -0.00000  -0.00060   0.00072   0.00000  -0.00037   0.00003   0.00000  -0.00000   0.00161  -0.00000 ...
   0.00000   0.00000   0.00031   0.00000  -0.00001   0.00001   0.00000  -0.00000   0.00008  -0.00161  -0.00000  -0.00000 ...
   0.00000   0.00001   0.00072   0.00000   0.00000   0.00003   0.00000  -0.00000  -0.00093   0.00000   0.00000  -0.00000 ...
   ...  only 12  components have been written...
 Atom #  1 - Component magn (y)
   === REAL PART:
   0.00000   0.00000   0.00000   0.00000   0.00000  -0.00000   0.00000   0.00000   0.00000   0.00000   0.00000   0.00000 ...
   0.00000   0.00000   0.00000   0.00000   0.00000   0.00000   0.00000   0.00000   0.00000   0.00000   0.00000   0.00000 ...
   0.00000   0.00000   0.00000   0.00000  -0.00000   0.00000   0.00000  -0.00000  -0.00000   0.00000  -0.00000  -0.00000 ...
   0.00000   0.00000   0.00000   0.00000   0.00000   0.00000   0.00000  -0.00000  -0.00000   0.00000   0.00000   0.00000 ...
   0.00000   0.00000  -0.00000   0.00000  -0.00000  -0.00000  -0.00000  -0.00000   0.00000  -0.00000   0.00000  -0.00000 ...
  -0.00000   0.00000   0.00000   0.00000  -0.00000   0.00000   0.00000  -0.00000  -0.00000   0.00000  -0.00000  -0.00000 ...
   0.00000   0.00000   0.00000   0.00000  -0.00000   0.00000   0.00000  -0.00000  -0.00000   0.00000   0.00000  -0.00000 ...
   0.00000   0.00000  -0.00000  -0.00000  -0.00000  -0.00000  -0.00000  -0.00000   0.00000  -0.00000   0.00000  -0.00000 ...
   0.00000   0.00000  -0.00000  -0.00000   0.00000  -0.00000  -0.00000   0.00000   0.00000  -0.00000  -0.00000   0.00000 ...
   0.00000   0.00000   0.00000   0.00000  -0.00000   0.00000   0.00000  -0.00000  -0.00000   0.00000  -0.00000   0.00000 ...
   0.00000   0.00000  -0.00000   0.00000   0.00000  -0.00000   0.00000   0.00000  -0.00000  -0.00000   0.00000  -0.00000 ...
   0.00000   0.00000  -0.00000   0.00000  -0.00000  -0.00000  -0.00000  -0.00000   0.00000   0.00000  -0.00000  -0.00000 ...
   ...  only 12  components have been written...
   === IMAGINARY PART:
  -0.00000  -0.00000  -0.00000  -0.00000  -0.00160  -0.00000  -0.00000   0.00009   0.00000  -0.00000  -0.00000   0.00007 ...
   0.00000  -0.00000  -0.00000  -0.00000   0.00026  -0.00000  -0.00000   0.00000   0.00000  -0.00001  -0.00000   0.00014 ...
   0.00000   0.00000  -0.00000   0.00000  -0.00000   0.00005   0.00000  -0.00000  -0.00107   0.00072   0.00001   0.00000 ...
   0.00000   0.00000  -0.00000  -0.00000   0.16259  -0.00000  -0.00000  -0.03256   0.00000  -0.00000  -0.00000  -0.00060 ...
   0.00160  -0.00026   0.00000  -0.16259  -0.00000  -0.00000   0.03399  -0.00005   0.00000   0.00000   0.00031  -0.00072 ...
   0.00000   0.00000  -0.00005   0.00000   0.00000  -0.00000   0.00000   0.00000  -0.00002   0.00003   0.00000  -0.00000 ...
   0.00000   0.00000  -0.00000   0.00000  -0.03399  -0.00000  -0.00000   0.00141   0.00000  -0.00000  -0.00000  -0.00037 ...
  -0.00009  -0.00000   0.00000   0.03256   0.00005  -0.00000  -0.00141  -0.00000   0.00000  -0.00000   0.00001  -0.00003 ...
  -0.00000  -0.00000   0.00107  -0.00000  -0.00000   0.00002  -0.00000  -0.00000  -0.00000  -0.00093   0.00000  -0.00000 ...
   0.00000   0.00001  -0.00072   0.00000  -0.00000  -0.00003   0.00000   0.00000   0.00093  -0.00000   0.00000   0.00000 ...
   0.00000   0.00000  -0.00001   0.00000  -0.00031  -0.00000   0.00000  -0.00001  -0.00000  -0.00000  -0.00000   0.00161 ...
  -0.00007  -0.00014  -0.00000   0.00060   0.00072   0.00000   0.00037   0.00003   0.00000  -0.00000  -0.00161  -0.00000 ...
   ...  only 12  components have been written...
 Atom #  1 - Component magn (z)
   === REAL PART:
  -0.00000  -0.00000   0.00000   0.00000   0.00000   0.00000  -0.00000   0.00000   0.00000   0.00000   0.00000   0.00000 ...
  -0.00000  -0.00000   0.00000   0.00000   0.00000   0.00000   0.00000   0.00000   0.00000   0.00000   0.00000   0.00000 ...
   0.00000   0.00000   0.00000   0.00000   0.00000  -0.00000   0.00000  -0.00000  -0.00000   0.00000   0.00000  -0.00000 ...
   0.00000   0.00000   0.00000  -0.00000   0.00000   0.00000  -0.00000   0.00000   0.00000   0.00000   0.00000   0.00000 ...
   0.00000   0.00000   0.00000   0.00000   0.00000   0.00000   0.00000  -0.00000   0.00000   0.00000   0.00000   0.00000 ...
   0.00000   0.00000  -0.00000   0.00000   0.00000  -0.00000   0.00000  -0.00000   0.00000   0.00000   0.00000  -0.00000 ...
  -0.00000   0.00000   0.00000  -0.00000   0.00000   0.00000  -0.00000   0.00000   0.00000   0.00000   0.00000   0.00000 ...
   0.00000   0.00000  -0.00000   0.00000  -0.00000  -0.00000   0.00000  -0.00000   0.00000   0.00000   0.00000   0.00000 ...
   0.00000   0.00000  -0.00000   0.00000   0.00000   0.00000   0.00000   0.00000  -0.00000   0.00000   0.00000  -0.00000 ...
   0.00000   0.00000   0.00000   0.00000   0.00000   0.00000   0.00000   0.00000   0.00000  -0.00000   0.00000  -0.00000 ...
   0.00000   0.00000   0.00000   0.00000   0.00000   0.00000   0.00000   0.00000   0.00000   0.00000   0.00000   0.00000 ...
   0.00000   0.00000  -0.00000   0.00000   0.00000  -0.00000   0.00000   0.00000  -0.00000  -0.00000   0.00000  -0.00000 ...
   ...  only 12  components have been written...
   === IMAGINARY PART:
  -0.00000   0.00000  -0.00000   0.00000  -0.00000  -0.00000   0.00000  -0.00000  -0.00000  -0.00000   0.00001  -0.00000 ...
  -0.00000  -0.00000  -0.00000   0.00000  -0.00000  -0.00000   0.00000  -0.00000  -0.00000  -0.00000   0.00001  -0.00000 ...
   0.00000   0.00000  -0.00000  -0.00000  -0.08585   0.00000  -0.00000   0.03504  -0.00000   0.00000  -0.00000   0.00105 ...
  -0.00000  -0.00000   0.00000  -0.00000  -0.00000  -0.00000  -0.00000  -0.00000  -0.00000  -0.00000   0.00001  -0.00000 ...
   0.00000   0.00000   0.08585   0.00000  -0.00000  -0.03504  -0.00000   0.00000   0.00119  -0.00105  -0.00000   0.00000 ...
   0.00000   0.00000  -0.00000   0.00000   0.03504  -0.00000  -0.00000  -0.00135  -0.00000   0.00000  -0.00000   0.00041 ...
  -0.00000  -0.00000   0.00000   0.00000   0.00000   0.00000  -0.00000  -0.00000  -0.00000  -0.00000   0.00000  -0.00000 ...
   0.00000   0.00000  -0.03504   0.00000  -0.00000   0.00135   0.00000  -0.00000  -0.00040  -0.00041  -0.00000   0.00000 ...
   0.00000   0.00000   0.00000   0.00000  -0.00119   0.00000   0.00000   0.00040  -0.00000   0.00000  -0.00000   0.00005 ...
   0.00000   0.00000  -0.00000   0.00000   0.00105  -0.00000   0.00000   0.00041  -0.00000  -0.00000  -0.00000  -0.00085 ...
  -0.00001  -0.00001   0.00000  -0.00001   0.00000   0.00000  -0.00000   0.00000   0.00000   0.00000  -0.00000  -0.00000 ...
   0.00000   0.00000  -0.00105   0.00000  -0.00000  -0.00041   0.00000  -0.00000  -0.00005   0.00085   0.00000  -0.00000 ...
   ...  only 12  components have been written...
 Atom #  2 - Component dens (n)
   === REAL PART:
   2.00387  -0.02315   0.00000   0.00128   0.00000   0.00000   0.00134   0.00000   0.00000   0.00000   0.00200   0.00000 ...
  -0.02315   0.00185   0.00000   0.00301   0.00000   0.00000   0.00033   0.00000   0.00000   0.00000   0.00347   0.00000 ...
   0.00000   0.00000   1.10018   0.00000   0.00000  -0.00730   0.00000   0.00000  -0.00958  -0.00953   0.00000   0.00000 ...
   0.00128   0.00301   0.00000   0.98028   0.00000   0.00000  -0.00974   0.00000   0.00000   0.00000  -0.00285   0.00000 ...
   0.00000   0.00000   0.00000   0.00000   1.10018  -0.00000   0.00000  -0.00730  -0.00000  -0.00000   0.00000  -0.00953 ...
   0.00000   0.00000  -0.00730   0.00000  -0.00000   0.00275   0.00000   0.00000   0.00144   0.00116   0.00000   0.00000 ...
   0.00134   0.00033   0.00000  -0.00974   0.00000   0.00000   0.00256   0.00000   0.00000   0.00000  -0.00094   0.00000 ...
   0.00000   0.00000   0.00000   0.00000  -0.00730   0.00000   0.00000   0.00275  -0.00000  -0.00000   0.00000   0.00116 ...
   0.00000   0.00000  -0.00958   0.00000  -0.00000   0.00144   0.00000  -0.00000   2.02351   0.00087   0.00000   0.00000 ...
   0.00000   0.00000  -0.00953   0.00000  -0.00000   0.00116   0.00000  -0.00000   0.00087   2.02288   0.00000  -0.00000 ...
   0.00200   0.00347   0.00000  -0.00285   0.00000   0.00000  -0.00094   0.00000   0.00000   0.00000   2.02297   0.00000 ...
   0.00000   0.00000   0.00000   0.00000  -0.00953   0.00000   0.00000   0.00116   0.00000  -0.00000   0.00000   2.02288 ...
   ...  only 12  components have been written...
   === IMAGINARY PART:
  -0.00000   0.00000  -0.00000   0.00000  -0.00000  -0.00000   0.00000  -0.00000  -0.00000  -0.00000  -0.00000  -0.00000 ...
  -0.00000  -0.00000  -0.00000  -0.00000  -0.00000  -0.00000   0.00000  -0.00000  -0.00000  -0.00000  -0.00001  -0.00000 ...
   0.00000   0.00000  -0.00000  -0.00000  -0.00000   0.00000  -0.00000  -0.00000   0.00000   0.00000  -0.00000   0.00000 ...
  -0.00000   0.00000   0.00000  -0.00000  -0.00000  -0.00000   0.00000  -0.00000  -0.00000  -0.00000  -0.00000  -0.00000 ...
   0.00000   0.00000   0.00000   0.00000  -0.00000   0.00000  -0.00000   0.00000   0.00000  -0.00000  -0.00000   0.00000 ...
   0.00000   0.00000  -0.00000   0.00000  -0.00000  -0.00000  -0.00000  -0.00000   0.00000   0.00000  -0.00000   0.00000 ...
  -0.00000  -0.00000   0.00000  -0.00000   0.00000   0.00000  -0.00000  -0.00000  -0.00000  -0.00000  -0.00000  -0.00000 ...
   0.00000   0.00000   0.00000   0.00000  -0.00000   0.00000   0.00000  -0.00000   0.00000  -0.00000  -0.00000   0.00000 ...
   0.00000   0.00000  -0.00000   0.00000  -0.00000  -0.00000   0.00000  -0.00000  -0.00000  -0.00000  -0.00000   0.00000 ...
   0.00000   0.00000  -0.00000   0.00000   0.00000  -0.00000   0.00000   0.00000   0.00000  -0.00000  -0.00000  -0.00000 ...
   0.00000   0.00001   0.00000   0.00000   0.00000   0.00000   0.00000   0.00000   0.00000   0.00000  -0.00000  -0.00000 ...
   0.00000   0.00000  -0.00000   0.00000  -0.00000  -0.00000   0.00000  -0.00000  -0.00000   0.00000   0.00000  -0.00000 ...
   ...  only 12  components have been written...
 Atom #  2 - Component magn (x)
   === REAL PART:
   0.00000   0.00000   0.00000   0.00000  -0.00000   0.00000   0.00000   0.00000   0.00000   0.00000   0.00000   0.00000 ...
   0.00000   0.00000  -0.00000   0.00000  -0.00000   0.00000   0.00000  -0.00000  -0.00000   0.00000   0.00000   0.00000 ...
   0.00000  -0.00000   0.00000  -0.00000   0.00000  -0.00000  -0.00000  -0.00000  -0.00000   0.00000  -0.00000   0.00000 ...
   0.00000   0.00000  -0.00000   0.00000   0.00000   0.00000   0.00000   0.00000   0.00000   0.00000   0.00000  -0.00000 ...
  -0.00000  -0.00000   0.00000   0.00000  -0.00000  -0.00000   0.00000   0.00000   0.00000   0.00000   0.00000  -0.00000 ...
   0.00000   0.00000  -0.00000   0.00000  -0.00000  -0.00000   0.00000  -0.00000  -0.00000   0.00000  -0.00000   0.00000 ...
   0.00000   0.00000  -0.00000   0.00000   0.00000   0.00000   0.00000   0.00000   0.00000   0.00000   0.00000  -0.00000 ...
   0.00000  -0.00000  -0.00000   0.00000   0.00000  -0.00000   0.00000   0.00000   0.00000   0.00000   0.00000  -0.00000 ...
   0.00000  -0.00000  -0.00000   0.00000   0.00000  -0.00000   0.00000   0.00000  -0.00000   0.00000   0.00000   0.00000 ...
   0.00000   0.00000   0.00000   0.00000   0.00000   0.00000   0.00000   0.00000   0.00000   0.00000   0.00000   0.00000 ...
   0.00000   0.00000  -0.00000   0.00000   0.00000  -0.00000   0.00000   0.00000   0.00000   0.00000   0.00000   0.00000 ...
   0.00000   0.00000   0.00000  -0.00000  -0.00000   0.00000  -0.00000  -0.00000   0.00000   0.00000   0.00000  -0.00000 ...
   ...  only 12  components have been written...
   === IMAGINARY PART:
  -0.00000  -0.00000  -0.00160  -0.00000  -0.00000   0.00009  -0.00000   0.00000  -0.00043  -0.00007  -0.00000   0.00000 ...
   0.00000  -0.00000   0.00027  -0.00000   0.00000   0.00000  -0.00000   0.00000   0.00004  -0.00012  -0.00000   0.00001 ...
   0.00160  -0.00027  -0.00000   0.16260   0.00000  -0.00000  -0.03399  -0.00005   0.00000   0.00000   0.00031   0.00071 ...
   0.00000   0.00000  -0.16260  -0.00000  -0.00000   0.03256  -0.00000  -0.00000  -0.00089  -0.00058  -0.00000  -0.00000 ...
   0.00000  -0.00000  -0.00000   0.00000  -0.00000  -0.00005  -0.00000   0.00000  -0.00106   0.00071   0.00001  -0.00000 ...
  -0.00009  -0.00000   0.00000  -0.03256   0.00005  -0.00000   0.00141  -0.00000   0.00000   0.00000   0.00001   0.00003 ...
   0.00000   0.00000   0.03399   0.00000   0.00000  -0.00141  -0.00000  -0.00000  -0.00049  -0.00036  -0.00000   0.00000 ...
  -0.00000  -0.00000   0.00005   0.00000  -0.00000   0.00000   0.00000  -0.00000  -0.00002   0.00003   0.00000  -0.00000 ...
   0.00043  -0.00004  -0.00000   0.00089   0.00106  -0.00000   0.00049   0.00002  -0.00000  -0.00000  -0.00008   0.00093 ...
   0.00007   0.00012  -0.00000   0.00058  -0.00071  -0.00000   0.00036  -0.00003   0.00000  -0.00000   0.00161  -0.00000 ...
   0.00000   0.00000  -0.00031   0.00000  -0.00001  -0.00001   0.00000  -0.00000   0.00008  -0.00161  -0.00000   0.00000 ...
  -0.00000  -0.00001  -0.00071   0.00000   0.00000  -0.00003  -0.00000   0.00000  -0.00093   0.00000  -0.00000  -0.00000 ...
   ...  only 12  components have been written...
 Atom #  2 - Component magn (y)
   === REAL PART:
   0.00000   0.00000  -0.00000   0.00000  -0.00000   0.00000   0.00000  -0.00000   0.00000   0.00000   0.00000  -0.00000 ...
   0.00000   0.00000  -0.00000   0.00000   0.00000  -0.00000   0.00000  -0.00000   0.00000   0.00000   0.00000  -0.00000 ...
  -0.00000  -0.00000  -0.00000   0.00000   0.00000   0.00000   0.00000  -0.00000  -0.00000  -0.00000   0.00000   0.00000 ...
   0.00000   0.00000   0.00000   0.00000   0.00000   0.00000   0.00000  -0.00000   0.00000  -0.00000   0.00000  -0.00000 ...
  -0.00000   0.00000   0.00000   0.00000   0.00000  -0.00000   0.00000  -0.00000  -0.00000   0.00000   0.00000   0.00000 ...
   0.00000  -0.00000   0.00000   0.00000  -0.00000   0.00000   0.00000  -0.00000  -0.00000  -0.00000   0.00000   0.00000 ...
   0.00000   0.00000   0.00000   0.00000   0.00000   0.00000   0.00000  -0.00000   0.00000  -0.00000   0.00000  -0.00000 ...
  -0.00000  -0.00000  -0.00000  -0.00000  -0.00000  -0.00000  -0.00000  -0.00000  -0.00000   0.00000   0.00000   0.00000 ...
   0.00000   0.00000  -0.00000   0.00000  -0.00000  -0.00000   0.00000  -0.00000  -0.00000  -0.00000   0.00000   0.00000 ...
   0.00000   0.00000  -0.00000  -0.00000   0.00000  -0.00000  -0.00000   0.00000  -0.00000  -0.00000   0.00000   0.00000 ...
   0.00000   0.00000   0.00000   0.00000   0.00000   0.00000   0.00000   0.00000   0.00000   0.00000   0.00000  -0.00000 ...
  -0.00000  -0.00000   0.00000  -0.00000   0.00000   0.00000  -0.00000   0.00000   0.00000   0.00000  -0.00000   0.00000 ...
   ...  only 12  components have been written...
   === IMAGINARY PART:
  -0.00000  -0.00000  -0.00000  -0.00000   0.00160   0.00000  -0.00000  -0.00009  -0.00000   0.00000  -0.00000   0.00007 ...
   0.00000  -0.00000   0.00000  -0.00000  -0.00027   0.00000  -0.00000  -0.00000  -0.00000   0.00001  -0.00000   0.00012 ...
   0.00000  -0.00000  -0.00000   0.00000  -0.00000   0.00005  -0.00000  -0.00000   0.00106  -0.00071   0.00001   0.00000 ...
   0.00000   0.00000  -0.00000  -0.00000   0.16260  -0.00000  -0.00000  -0.03256   0.00000  -0.00000  -0.00000   0.00058 ...
  -0.00160   0.00027   0.00000  -0.16260  -0.00000  -0.00000   0.03399  -0.00005   0.00000   0.00000  -0.00031   0.00071 ...
  -0.00000  -0.00000  -0.00005   0.00000   0.00000  -0.00000   0.00000   0.00000   0.00002  -0.00003   0.00000   0.00000 ...
   0.00000   0.00000   0.00000   0.00000  -0.03399  -0.00000  -0.00000   0.00141   0.00000   0.00000  -0.00000   0.00036 ...
   0.00009   0.00000   0.00000   0.03256   0.00005  -0.00000  -0.00141  -0.00000   0.00000   0.00000  -0.00001   0.00003 ...
   0.00000   0.00000  -0.00106  -0.00000  -0.00000  -0.00002  -0.00000  -0.00000  -0.00000  -0.00093  -0.00000  -0.00000 ...
  -0.00000  -0.00001   0.00071   0.00000  -0.00000   0.00003  -0.00000  -0.00000   0.00093  -0.00000  -0.00000   0.00000 ...
   0.00000   0.00000  -0.00001   0.00000   0.00031  -0.00000   0.00000   0.00001   0.00000   0.00000  -0.00000   0.00161 ...
  -0.00007  -0.00012  -0.00000  -0.00058  -0.00071  -0.00000  -0.00036  -0.00003   0.00000  -0.00000  -0.00161  -0.00000 ...
   ...  only 12  components have been written...
 Atom #  2 - Component magn (z)
   === REAL PART:
   0.00000   0.00000   0.00000   0.00000   0.00000   0.00000   0.00000   0.00000   0.00000   0.00000   0.00000   0.00000 ...
   0.00000  -0.00000   0.00000   0.00000   0.00000   0.00000   0.00000   0.00000   0.00000   0.00000   0.00000   0.00000 ...
   0.00000   0.00000   0.00000   0.00000  -0.00000   0.00000   0.00000   0.00000  -0.00000   0.00000   0.00000   0.00000 ...
   0.00000   0.00000   0.00000   0.00000   0.00000   0.00000   0.00000   0.00000   0.00000   0.00000   0.00000   0.00000 ...
   0.00000   0.00000  -0.00000   0.00000   0.00000  -0.00000   0.00000   0.00000  -0.00000  -0.00000   0.00000   0.00000 ...
   0.00000   0.00000   0.00000   0.00000  -0.00000   0.00000   0.00000   0.00000  -0.00000   0.00000   0.00000   0.00000 ...
   0.00000   0.00000   0.00000   0.00000   0.00000   0.00000   0.00000   0.00000   0.00000   0.00000   0.00000   0.00000 ...
   0.00000   0.00000   0.00000   0.00000   0.00000   0.00000   0.00000   0.00000  -0.00000  -0.00000   0.00000   0.00000 ...
   0.00000   0.00000  -0.00000   0.00000  -0.00000  -0.00000   0.00000  -0.00000  -0.00000   0.00000   0.00000   0.00000 ...
   0.00000   0.00000   0.00000   0.00000  -0.00000   0.00000   0.00000  -0.00000   0.00000  -0.00000   0.00000   0.00000 ...
   0.00000   0.00000   0.00000   0.00000   0.00000   0.00000   0.00000   0.00000   0.00000   0.00000   0.00000   0.00000 ...
   0.00000   0.00000   0.00000   0.00000   0.00000   0.00000   0.00000   0.00000   0.00000   0.00000   0.00000  -0.00000 ...
   ...  only 12  components have been written...
   === IMAGINARY PART:
  -0.00000  -0.00000  -0.00000   0.00000  -0.00000  -0.00000  -0.00000  -0.00000  -0.00000  -0.00000   0.00000  -0.00000 ...
   0.00000  -0.00000  -0.00000   0.00000  -0.00000  -0.00000  -0.00000  -0.00000  -0.00000  -0.00000   0.00000  -0.00000 ...
   0.00000   0.00000  -0.00000  -0.00000  -0.08585   0.00000  -0.00000   0.03503   0.00000  -0.00000  -0.00000  -0.00104 ...
  -0.00000  -0.00000   0.00000  -0.00000  -0.00000  -0.00000  -0.00000  -0.00000  -0.00000  -0.00000   0.00001  -0.00000 ...
   0.00000   0.00000   0.08585   0.00000  -0.00000  -0.03503  -0.00000   0.00000  -0.00118   0.00104  -0.00000  -0.00000 ...
   0.00000   0.00000  -0.00000   0.00000   0.03503  -0.00000  -0.00000  -0.00135   0.00000   0.00000  -0.00000  -0.00041 ...
   0.00000   0.00000   0.00000   0.00000   0.00000   0.00000  -0.00000  -0.00000  -0.00000  -0.00000   0.00000  -0.00000 ...
   0.00000   0.00000  -0.03503   0.00000  -0.00000   0.00135   0.00000  -0.00000   0.00040   0.00041  -0.00000   0.00000 ...
   0.00000   0.00000  -0.00000   0.00000   0.00118  -0.00000   0.00000  -0.00040  -0.00000   0.00000  -0.00000   0.00005 ...
   0.00000   0.00000   0.00000   0.00000  -0.00104  -0.00000   0.00000  -0.00041  -0.00000  -0.00000  -0.00000  -0.00085 ...
  -0.00000  -0.00000   0.00000  -0.00001   0.00000   0.00000  -0.00000   0.00000   0.00000   0.00000  -0.00000  -0.00000 ...
   0.00000   0.00000   0.00104   0.00000   0.00000   0.00041   0.00000  -0.00000  -0.00005   0.00085   0.00000  -0.00000 ...
   ...  only 12  components have been written...


================================================================================

 ----iterations are completed or convergence reached----

 Mean square residual over all n,k,spin=   5.9838E-10; max=  2.3789E-09
   0.2500  0.2500  0.2500    1  2.30358E-09 kpt; spin; max resid(k); each band:
  2.00E-09 1.88E-09 1.78E-09 2.30E-09 5.47E-11 5.32E-11 6.42E-11 5.77E-11
  2.18E-09 1.98E-09 2.03E-09 1.50E-09 1.61E-09 1.43E-09 6.73E-11 5.43E-11
  6.56E-11 5.33E-11 5.07E-11 4.91E-11 6.50E-12 4.43E-12 1.35E-11 7.03E-12
  1.20E-10 1.39E-10 9.96E-11 9.15E-11 1.88E-11 1.72E-11 1.35E-10 1.26E-10
  -0.2500  0.2500  0.2500    1  2.22091E-09 kpt; spin; max resid(k); each band:
  1.34E-09 1.34E-09 2.04E-09 1.54E-09 1.45E-10 1.00E-10 2.16E-11 2.21E-11
  1.41E-09 1.71E-09 1.83E-09 1.55E-09 1.62E-09 2.22E-09 1.93E-10 1.61E-10
  1.97E-11 1.92E-11 1.83E-11 1.69E-11 5.15E-11 6.19E-11 3.55E-11 3.46E-11
  1.91E-10 1.11E-10 2.15E-10 3.04E-10 2.04E-11 3.05E-11 1.51E-10 1.67E-10
  -0.2500 -0.2500  0.2500    1  2.24514E-09 kpt; spin; max resid(k); each band:
  1.24E-09 1.27E-09 1.62E-09 1.55E-09 1.40E-10 1.05E-10 2.26E-11 2.33E-11
  1.58E-09 1.72E-09 1.34E-09 1.38E-09 2.05E-09 2.25E-09 2.25E-10 1.69E-10
  2.03E-11 1.74E-11 1.89E-11 1.77E-11 5.97E-11 5.30E-11 3.79E-11 5.25E-11
  1.62E-10 1.76E-10 2.88E-10 2.20E-10 2.53E-11 2.45E-11 2.18E-10 1.84E-10
  -0.2500 -0.2500 -0.2500    1  2.37886E-09 kpt; spin; max resid(k); each band:
  1.84E-09 1.86E-09 2.23E-09 2.38E-09 5.38E-11 5.36E-11 6.24E-11 6.15E-11
  1.90E-09 1.89E-09 1.66E-09 1.43E-09 1.61E-09 1.43E-09 6.98E-11 6.49E-11
  6.14E-11 5.40E-11 5.01E-11 5.18E-11 5.15E-12 5.14E-12 1.04E-11 6.00E-12
  1.05E-10 1.43E-10 9.14E-11 1.13E-10 1.61E-11 1.29E-11 1.31E-10 1.39E-10
 reduced coordinates (array xred) for    2 atoms
       0.231000000000      0.231000000000      0.231000000000
      -0.231000000000     -0.231000000000     -0.231000000000
 rms dE/dt=  1.4041E-02; max dE/dt=  1.4112E-02; dE/dt below (all hartree)
    1       0.014112253802      0.014112253802      0.014112253802
    2      -0.013970321820     -0.013970321820     -0.013970321820

 cartesian coordinates (angstrom) at end:
    1      0.00000000000000     0.00000000000000     2.74948455957311
    2      0.00000000000000     0.00000000000000    -2.74948455957311

 cartesian forces (hartree/bohr) at end:
    1     -0.00000000000000    -0.00000000000000    -0.00187279405439
    2     -0.00000000000000    -0.00000000000000     0.00187279405439
 frms,max,avg= 1.0812582E-03 1.8727941E-03   0.000E+00  0.000E+00 -9.465E-06 h/b

 cartesian forces (eV/Angstrom) at end:
    1     -0.00000000000000    -0.00000000000000    -0.09630293421092
    2     -0.00000000000000    -0.00000000000000     0.09630293421092
 frms,max,avg= 5.5600525E-02 9.6302934E-02   0.000E+00  0.000E+00 -4.867E-04 e/A
 length scales=  9.000000000000  9.000000000000  9.000000000000 bohr
              =  4.762594877310  4.762594877310  4.762594877310 angstroms
 Fermi (or HOMO) energy (hartree) =   0.14814   Average Vxc (hartree)=  -0.35914
 Eigenvalues (hartree) for nkpt=   4  k points:
 kpt#   1, nband= 32, wtk=  0.12500, kpt=  0.2500  0.2500  0.2500 (reduced coord)
  -0.75196  -0.75196  -0.74845  -0.74845  -0.74355  -0.74355  -0.74270  -0.74270
  -0.64508  -0.64508  -0.64239  -0.64239  -0.64108  -0.64108  -0.63898  -0.63898
  -0.63609  -0.63609  -0.63449  -0.63449  -0.30567  -0.30567  -0.16029  -0.16029
   0.06688   0.06688   0.12736   0.12736   0.14814   0.14814   0.17594   0.17594
 kpt#   2, nband= 32, wtk=  0.37500, kpt= -0.2500  0.2500  0.2500 (reduced coord)
  -0.73817  -0.73817  -0.73302  -0.73302  -0.72962  -0.72962  -0.72610  -0.72610
  -0.63480  -0.63480  -0.63265  -0.63265  -0.62833  -0.62833  -0.62477  -0.62477
  -0.62127  -0.62127  -0.62024  -0.62024  -0.25739  -0.25739  -0.21032  -0.21032
   0.02461   0.02461   0.04785   0.04785   0.09902   0.09902   0.22404   0.22404
 kpt#   3, nband= 32, wtk=  0.37500, kpt= -0.2500 -0.2500  0.2500 (reduced coord)
  -0.73817  -0.73817  -0.73302  -0.73302  -0.72962  -0.72962  -0.72610  -0.72610
  -0.63480  -0.63480  -0.63265  -0.63265  -0.62833  -0.62833  -0.62477  -0.62477
  -0.62127  -0.62127  -0.62024  -0.62024  -0.25739  -0.25739  -0.21032  -0.21032
   0.02461   0.02461   0.04785   0.04785   0.09902   0.09902   0.22404   0.22404
 kpt#   4, nband= 32, wtk=  0.12500, kpt= -0.2500 -0.2500 -0.2500 (reduced coord)
  -0.75196  -0.75196  -0.74845  -0.74845  -0.74355  -0.74355  -0.74270  -0.74270
  -0.64508  -0.64508  -0.64239  -0.64239  -0.64108  -0.64108  -0.63898  -0.63898
  -0.63609  -0.63609  -0.63449  -0.63449  -0.30567  -0.30567  -0.16029  -0.16029
   0.06688   0.06688   0.12736   0.12736   0.14814   0.14814   0.17594   0.17594
 Total charge density [el/Bohr^3]
,     Maximum=    6.7425E-01  at reduced coord.    0.7778    0.7778    0.7778
,Next maximum=    6.7425E-01  at reduced coord.    0.2222    0.2222    0.2222
,     Minimum=    2.6395E-03  at reduced coord.    0.4815    0.4815    0.4815
,Next minimum=    2.6395E-03  at reduced coord.    0.5185    0.5185    0.5185
,  Integrated=    3.0000E+01

--------------------------------------------------------------------------------
 Components of total free energy (in Hartree) :

    Kinetic energy  =  1.41685174321686E+01
    Hartree energy  =  2.85250587399148E+01
    XC energy       = -1.48849613749579E+01
    Ewald energy    = -1.01752594990660E+02
    PspCore energy  =  6.40783148571285E+00
    Loc. psp. energy= -8.60579463505618E+01
    Spherical terms =  9.39764135808371E+00
    >>>>>>>>> Etotal= -1.44196453700300E+02

 "Double-counting" decomposition of free energy:
    Band energy     = -1.39519617274995E+01
    Ewald energy    = -1.01752594990660E+02
    PspCore energy  =  6.40783148571285E+00
    Dble-C XC-energy= -2.40235223968791E+01
    Spherical terms = -1.08761633879606E+01
    >>>> Etotal (DC)= -1.44196411017286E+02

  >Total energy in eV           = -3.92378505288957E+03
  >Total DC energy in eV        = -3.92378389142570E+03
--------------------------------------------------------------------------------

 Cartesian components of stress tensor (hartree/bohr^3)
  sigma(1 1)=  7.92584986E-03  sigma(3 2)=  0.00000000E+00
  sigma(2 2)=  7.92584986E-03  sigma(3 1)=  0.00000000E+00
  sigma(3 3)=  8.19279506E-03  sigma(2 1)=  0.00000000E+00

-Cartesian components of stress tensor (GPa)         [Pressure= -2.3580E+02 GPa]
- sigma(1 1)=  2.33186514E+02  sigma(3 2)=  0.00000000E+00
- sigma(2 2)=  2.33186514E+02  sigma(3 1)=  0.00000000E+00
- sigma(3 3)=  2.41040312E+02  sigma(2 1)=  0.00000000E+00

================================================================================
== DATASET  2 ==================================================================
-   nproc =    4

 Exchange-correlation functional for the present dataset will be:
  LDA: Perdew-Wang 92 LSD fit to Ceperley-Alder data - ixc=7
 Citation for XC functional:
  J.P.Perdew and Y.Wang, PRB 45, 13244 (1992)

 Real(R)+Recip(G) space primitive vectors, cartesian coordinates (Bohr,Bohr^-1):
 R(1)=  4.9786925  0.0000000  7.4975077  G(1)=  0.1339040  0.0000000  0.0444592
 R(2)= -2.4893462  4.3116741  7.4975077  G(2)= -0.0669520  0.1159642  0.0444592
 R(3)= -2.4893462 -4.3116741  7.4975077  G(3)= -0.0669520 -0.1159642  0.0444592
 Unit cell volume ucvol=  4.8283574E+02 bohr^3
 Angles (23,13,12)=  5.72500000E+01  5.72500000E+01  5.72500000E+01 degrees

 Coarse grid specifications (used for wave-functions):

 getcut: wavevector=  0.0000  0.0000  0.0000  ngfft=  20  20  20
         ecut(hartree)=      5.000   => boxcut(ratio)=   2.21156

 getcut : COMMENT -
  Note that boxcut > 2.2 ; recall that boxcut=Gcut(box)/Gcut(sphere) = 2
  is sufficient for exact treatment of convolution.
  Such a large boxcut is a waste : you could raise ecut
  e.g. ecut=    6.113754 Hartrees makes boxcut=2


 Fine grid specifications (used for densities):

 getcut: wavevector=  0.0000  0.0000  0.0000  ngfft=  27  27  27
         ecut(hartree)=     10.000   => boxcut(ratio)=   2.02940
--------------------------------------------------------------------------------

P newkpt: treating     32 bands with npw=     136 for ikpt=   1 by node    0
P newkpt: treating     32 bands with npw=     125 for ikpt=   2 by node    0
P newkpt: treating     32 bands with npw=     125 for ikpt=   3 by node    0
P newkpt: treating     32 bands with npw=     125 for ikpt=   4 by node    0
P newkpt: treating     32 bands with npw=     125 for ikpt=   5 by node    0
P newkpt: treating     32 bands with npw=     125 for ikpt=   6 by node    0
P newkpt: treating     32 bands with npw=     125 for ikpt=   7 by node    0
P newkpt: treating     32 bands with npw=     136 for ikpt=   8 by node    0

_setup2: Arith. and geom. avg. npw (full set) are     127.750     127.664

================================================================================

     iter   Etot(hartree)      deltaE(h)  residm     nres2
 ETOT  1  -144.18642938974    -1.442E+02 2.185E-03 1.055E+00
 ETOT  2  -144.19125340719    -4.824E-03 7.865E-04 2.846E-01
 ETOT  3  -144.19366293703    -2.410E-03 4.096E-05 8.314E-02
 ETOT  4  -144.19541360498    -1.751E-03 9.992E-05 1.385E-02
 ETOT  5  -144.19619256395    -7.790E-04 3.227E-06 3.420E-03
 ETOT  6  -144.19634530380    -1.527E-04 3.503E-06 7.723E-04
 ETOT  7  -144.19638901529    -4.371E-05 2.202E-06 6.271E-05
 ETOT  8  -144.19638325320     5.762E-06 1.976E-06 2.544E-05
 ETOT  9  -144.19640464781    -2.139E-05 4.806E-07 6.851E-06
 ETOT 10  -144.19641086499    -6.217E-06 7.157E-09 1.851E-06
 ETOT 11  -144.19641062190     2.431E-07 3.704E-08 2.982E-07
 ETOT 12  -144.19641104469    -4.228E-07 1.040E-09 1.618E-07
 ETOT 13  -144.19641105732    -1.263E-08 2.960E-10 4.548E-08

 At SCF step   13       nres2   =  4.55E-08 < tolvrs=  1.00E-07 =>converged.

 Cartesian components of stress tensor (hartree/bohr^3)
  sigma(1 1)=  7.92579141E-03  sigma(3 2)= -1.35971371E-09
  sigma(2 2)=  7.92579627E-03  sigma(3 1)= -5.66196361E-09
  sigma(3 3)=  8.19257213E-03  sigma(2 1)=  9.20353869E-10


 PAW TEST:
 ==== Compensation charge inside spheres ============
 The following values must be close to each other ...
 Compensation charge over spherical meshes =     12.989662051006743
 Compensation charge over fine fft grid    =     12.989813195445763

 ==== Results concerning PAW augmentation regions ====

 Total pseudopotential strength Dij (hartree):
 Atom #  1 - Component up-up
   === REAL PART:
   1.30025  -2.95290   0.00000  -0.00010  -0.00000  -0.00000   0.00073   0.00000  -0.00000   0.00000   0.00007   0.00000 ...
  -2.95290   6.58675  -0.00000   0.00028   0.00000   0.00000  -0.00115  -0.00000   0.00000  -0.00000  -0.00009  -0.00000 ...
   0.00000  -0.00000   0.25828   0.00000  -0.00000  -1.17737  -0.00000   0.00000   0.00008   0.00022  -0.00000   0.00000 ...
  -0.00010   0.00028   0.00000   0.25845   0.00000  -0.00000  -1.17799  -0.00000   0.00000   0.00000   0.00014  -0.00000 ...
  -0.00000   0.00000  -0.00000   0.00000   0.25828   0.00000  -0.00000  -1.17737   0.00000   0.00000   0.00000   0.00022 ...
  -0.00000   0.00000  -1.17737  -0.00000   0.00000   5.25296  -0.00000  -0.00000  -0.00017  -0.00049   0.00000   0.00000 ...
   0.00073  -0.00115  -0.00000  -1.17799  -0.00000  -0.00000   5.25619   0.00000   0.00000  -0.00000  -0.00032   0.00000 ...
   0.00000  -0.00000   0.00000  -0.00000  -1.17737  -0.00000   0.00000   5.25296  -0.00000   0.00000  -0.00000  -0.00049 ...
  -0.00000   0.00000   0.00008   0.00000   0.00000  -0.00017   0.00000  -0.00000  -0.79873  -0.00012  -0.00000   0.00000 ...
   0.00000  -0.00000   0.00022   0.00000   0.00000  -0.00049  -0.00000   0.00000  -0.00012  -0.79922   0.00000   0.00000 ...
   0.00007  -0.00009  -0.00000   0.00014   0.00000   0.00000  -0.00032  -0.00000  -0.00000   0.00000  -0.79930  -0.00000 ...
   0.00000  -0.00000   0.00000  -0.00000   0.00022   0.00000   0.00000  -0.00049   0.00000   0.00000  -0.00000  -0.79922 ...
   ...  only 12  components have been written...
   === IMAGINARY PART:
  -0.00000  -0.00000  -0.00000  -0.00000  -0.00000  -0.00000  -0.00000  -0.00000  -0.00000  -0.00000  -0.00000  -0.00000 ...
   0.00000  -0.00000  -0.00000  -0.00000  -0.00000  -0.00000  -0.00000  -0.00000  -0.00000  -0.00000  -0.00000  -0.00000 ...
   0.00000   0.00000  -0.00000  -0.00000  -0.02030  -0.00000  -0.00000   0.08387  -0.00000  -0.00000  -0.00000  -0.00000 ...
   0.00000   0.00000   0.00000  -0.00000  -0.00000  -0.00000  -0.00000  -0.00000  -0.00000  -0.00000  -0.00000  -0.00000 ...
   0.00000   0.00000   0.02030   0.00000  -0.00000  -0.08387  -0.00000  -0.00000  -0.00000  -0.00000  -0.00000  -0.00000 ...
   0.00000   0.00000   0.00000   0.00000   0.08387  -0.00000  -0.00000  -0.34652  -0.00000  -0.00000  -0.00000  -0.00000 ...
   0.00000   0.00000   0.00000   0.00000   0.00000   0.00000  -0.00000  -0.00000  -0.00000  -0.00000  -0.00000  -0.00000 ...
   0.00000   0.00000  -0.08387   0.00000   0.00000   0.34652   0.00000  -0.00000  -0.00000  -0.00000  -0.00000  -0.00000 ...
   0.00000   0.00000   0.00000   0.00000   0.00000   0.00000   0.00000   0.00000  -0.00000  -0.00000  -0.00000  -0.00000 ...
   0.00000   0.00000   0.00000   0.00000   0.00000   0.00000   0.00000   0.00000   0.00000  -0.00000  -0.00000  -0.02199 ...
   0.00000   0.00000   0.00000   0.00000   0.00000   0.00000   0.00000   0.00000   0.00000   0.00000  -0.00000  -0.00000 ...
   0.00000   0.00000   0.00000   0.00000   0.00000   0.00000   0.00000   0.00000   0.00000   0.02199   0.00000  -0.00000 ...
   ...  only 12  components have been written...
 Atom #  1 - Component dwn-dwn
   === REAL PART:
   1.30025  -2.95290   0.00000  -0.00010  -0.00000  -0.00000   0.00073   0.00000   0.00000   0.00000   0.00007   0.00000 ...
  -2.95290   6.58675  -0.00000   0.00028   0.00000   0.00000  -0.00115  -0.00000   0.00000  -0.00000  -0.00009   0.00000 ...
   0.00000  -0.00000   0.25828   0.00000   0.00000  -1.17737  -0.00000   0.00000   0.00008   0.00022  -0.00000   0.00000 ...
  -0.00010   0.00028   0.00000   0.25845  -0.00000  -0.00000  -1.17799   0.00000   0.00000   0.00000   0.00014  -0.00000 ...
  -0.00000   0.00000   0.00000  -0.00000   0.25828   0.00000   0.00000  -1.17737   0.00000   0.00000   0.00000   0.00022 ...
  -0.00000   0.00000  -1.17737  -0.00000   0.00000   5.25297   0.00000  -0.00000  -0.00017  -0.00049   0.00000  -0.00000 ...
   0.00073  -0.00115  -0.00000  -1.17799   0.00000   0.00000   5.25619  -0.00000  -0.00000  -0.00000  -0.00032   0.00000 ...
   0.00000  -0.00000   0.00000   0.00000  -1.17737  -0.00000  -0.00000   5.25297  -0.00000  -0.00000  -0.00000  -0.00049 ...
   0.00000   0.00000   0.00008   0.00000   0.00000  -0.00017  -0.00000  -0.00000  -0.79873  -0.00012  -0.00000   0.00000 ...
   0.00000  -0.00000   0.00022   0.00000   0.00000  -0.00049  -0.00000  -0.00000  -0.00012  -0.79922   0.00000   0.00000 ...
   0.00007  -0.00009  -0.00000   0.00014   0.00000   0.00000  -0.00032  -0.00000  -0.00000   0.00000  -0.79930   0.00000 ...
   0.00000   0.00000   0.00000  -0.00000   0.00022  -0.00000   0.00000  -0.00049   0.00000   0.00000   0.00000  -0.79922 ...
   ...  only 12  components have been written...
   === IMAGINARY PART:
  -0.00000  -0.00000  -0.00000  -0.00000  -0.00000  -0.00000  -0.00000  -0.00000  -0.00000  -0.00000  -0.00000  -0.00000 ...
   0.00000  -0.00000  -0.00000  -0.00000  -0.00000  -0.00000  -0.00000  -0.00000  -0.00000  -0.00000  -0.00000  -0.00000 ...
   0.00000   0.00000  -0.00000  -0.00000   0.02030  -0.00000  -0.00000  -0.08387  -0.00000  -0.00000  -0.00000  -0.00000 ...
[...]
  2.04E-10 1.25E-10 2.17E-10 2.41E-10 2.01E-11 2.88E-11 1.20E-11 1.09E-11
  1.14E-10 1.22E-10 1.17E-10 1.22E-10 1.16E-10 2.04E-10 1.87E-11 1.62E-11
  9.10E-12 1.00E-11 1.02E-11 1.01E-11 2.28E-12 5.51E-12 9.93E-13 1.80E-12
  1.90E-11 1.66E-11 1.67E-11 3.61E-11 1.52E-12 1.26E-12 2.30E-11 2.55E-11
   0.2500  0.2500 -0.2500    1  2.54580E-10 kpt; spin; max resid(k); each band:
  1.50E-10 1.80E-10 2.36E-10 2.55E-10 2.61E-11 2.23E-11 1.09E-11 1.14E-11
  2.02E-10 1.05E-10 1.39E-10 1.60E-10 1.18E-10 1.53E-10 1.44E-11 1.34E-11
  9.86E-12 9.21E-12 9.82E-12 1.04E-11 4.42E-12 3.42E-12 1.78E-12 2.44E-12
  2.11E-11 1.65E-11 2.64E-11 2.72E-11 1.98E-12 8.67E-13 2.34E-11 2.11E-11
  -0.2500  0.2500 -0.2500    1  2.95959E-10 kpt; spin; max resid(k); each band:
  1.50E-10 1.45E-10 2.96E-10 2.71E-10 2.25E-11 2.92E-11 1.18E-11 1.11E-11
  1.36E-10 1.28E-10 1.34E-10 1.68E-10 1.53E-10 1.49E-10 1.71E-11 1.54E-11
  1.14E-11 1.25E-11 1.09E-11 1.05E-11 1.75E-12 3.99E-12 2.05E-12 2.84E-12
  1.85E-11 9.16E-12 3.40E-11 2.96E-11 1.83E-12 1.81E-12 3.08E-11 1.73E-11
   0.2500 -0.2500 -0.2500    1  2.58333E-10 kpt; spin; max resid(k); each band:
  1.28E-10 1.85E-10 2.57E-10 2.58E-10 3.07E-11 1.98E-11 1.05E-11 1.14E-11
  1.38E-10 1.71E-10 1.11E-10 1.48E-10 1.81E-10 1.38E-10 1.53E-11 1.59E-11
  1.07E-11 1.03E-11 9.64E-12 1.14E-11 1.38E-12 3.63E-12 1.13E-12 1.56E-12
  1.77E-11 2.21E-11 3.07E-11 2.53E-11 1.63E-12 9.97E-13 2.48E-11 2.52E-11
  -0.2500 -0.2500 -0.2500    1  2.22482E-10 kpt; spin; max resid(k); each band:
  1.24E-10 1.43E-10 1.67E-10 1.90E-10 1.32E-11 1.54E-11 1.73E-11 1.69E-11
  1.29E-10 2.22E-10 1.57E-10 1.68E-10 2.10E-10 1.78E-10 1.20E-11 1.64E-11
  1.83E-11 1.52E-11 1.44E-11 1.31E-11 4.60E-13 1.14E-12 1.10E-12 1.22E-12
  1.35E-11 1.47E-11 8.28E-12 1.22E-11 2.60E-12 4.33E-12 3.60E-11 1.98E-11
 reduced coordinates (array xred) for    2 atoms
       0.231000000000      0.231000000000      0.231000000000
      -0.231000000000     -0.231000000000     -0.231000000000
 rms dE/dt=  1.3806E-02; max dE/dt=  1.3829E-02; dE/dt below (all hartree)
    1       0.013808026966      0.013776366363      0.013829058468
    2      -0.013838353578     -0.013798300436     -0.013785180620

 cartesian coordinates (angstrom) at end:
    1      0.00000000000000     0.00000000000000     2.74948455957311
    2      0.00000000000000     0.00000000000000    -2.74948455957311

 cartesian forces (hartree/bohr) at end:
    1     -0.00000347665585     0.00000229448518    -0.00184139605533
    2      0.00000347665585    -0.00000229448518     0.00184139605533
 frms,max,avg= 1.0631332E-03 1.8413961E-03   2.765E-06  3.816E-06  1.863E-07 h/b

 cartesian forces (eV/Angstrom) at end:
    1     -0.00017877681668     0.00011798716176    -0.09468838431907
    2      0.00017877681668    -0.00011798716176     0.09468838431907
 frms,max,avg= 5.4668504E-02 9.4688384E-02   1.422E-04  1.962E-04  9.582E-06 e/A
 length scales=  9.000000000000  9.000000000000  9.000000000000 bohr
              =  4.762594877310  4.762594877310  4.762594877310 angstroms
 Fermi (or HOMO) energy (hartree) =   0.14814   Average Vxc (hartree)=  -0.35914
 Eigenvalues (hartree) for nkpt=   8  k points:
 kpt#   1, nband= 32, wtk=  0.12500, kpt=  0.2500  0.2500  0.2500 (reduced coord)
  -0.75196  -0.75196  -0.74844  -0.74844  -0.74355  -0.74355  -0.74270  -0.74270
  -0.64507  -0.64507  -0.64239  -0.64239  -0.64108  -0.64108  -0.63898  -0.63898
  -0.63609  -0.63609  -0.63448  -0.63448  -0.30567  -0.30567  -0.16029  -0.16029
   0.06688   0.06689   0.12736   0.12736   0.14814   0.14814   0.17594   0.17594
 kpt#   2, nband= 32, wtk=  0.12500, kpt= -0.2500  0.2500  0.2500 (reduced coord)
  -0.73816  -0.73816  -0.73302  -0.73302  -0.72962  -0.72962  -0.72610  -0.72609
  -0.63480  -0.63479  -0.63264  -0.63264  -0.62833  -0.62833  -0.62476  -0.62476
  -0.62127  -0.62127  -0.62024  -0.62024  -0.25739  -0.25739  -0.21032  -0.21032
   0.02461   0.02461   0.04785   0.04785   0.09902   0.09902   0.22404   0.22404
 kpt#   3, nband= 32, wtk=  0.12500, kpt=  0.2500 -0.2500  0.2500 (reduced coord)
  -0.73816  -0.73816  -0.73302  -0.73302  -0.72962  -0.72962  -0.72610  -0.72609
  -0.63480  -0.63479  -0.63264  -0.63264  -0.62833  -0.62833  -0.62476  -0.62476
  -0.62127  -0.62127  -0.62024  -0.62024  -0.25739  -0.25739  -0.21032  -0.21032
   0.02461   0.02461   0.04785   0.04785   0.09902   0.09902   0.22404   0.22404
 kpt#   4, nband= 32, wtk=  0.12500, kpt= -0.2500 -0.2500  0.2500 (reduced coord)
  -0.73816  -0.73816  -0.73302  -0.73302  -0.72962  -0.72962  -0.72610  -0.72609
  -0.63480  -0.63479  -0.63264  -0.63264  -0.62833  -0.62833  -0.62476  -0.62476
  -0.62127  -0.62127  -0.62024  -0.62024  -0.25739  -0.25739  -0.21032  -0.21032
   0.02461   0.02461   0.04785   0.04785   0.09902   0.09902   0.22404   0.22404
 kpt#   5, nband= 32, wtk=  0.12500, kpt=  0.2500  0.2500 -0.2500 (reduced coord)
  -0.73816  -0.73816  -0.73302  -0.73302  -0.72962  -0.72962  -0.72610  -0.72609
  -0.63480  -0.63479  -0.63264  -0.63264  -0.62833  -0.62833  -0.62476  -0.62476
  -0.62127  -0.62127  -0.62024  -0.62024  -0.25739  -0.25739  -0.21032  -0.21032
   0.02461   0.02461   0.04785   0.04785   0.09902   0.09902   0.22404   0.22404
 kpt#   6, nband= 32, wtk=  0.12500, kpt= -0.2500  0.2500 -0.2500 (reduced coord)
  -0.73816  -0.73816  -0.73302  -0.73302  -0.72962  -0.72962  -0.72610  -0.72609
  -0.63480  -0.63479  -0.63264  -0.63264  -0.62833  -0.62833  -0.62476  -0.62476
  -0.62127  -0.62127  -0.62024  -0.62024  -0.25739  -0.25739  -0.21032  -0.21032
   0.02461   0.02461   0.04785   0.04785   0.09902   0.09902   0.22404   0.22404
 kpt#   7, nband= 32, wtk=  0.12500, kpt=  0.2500 -0.2500 -0.2500 (reduced coord)
  -0.73816  -0.73816  -0.73302  -0.73302  -0.72962  -0.72962  -0.72610  -0.72609
  -0.63480  -0.63479  -0.63264  -0.63264  -0.62833  -0.62833  -0.62476  -0.62476
  -0.62127  -0.62127  -0.62024  -0.62024  -0.25739  -0.25739  -0.21032  -0.21032
   0.02461   0.02461   0.04785   0.04785   0.09902   0.09902   0.22404   0.22404
 kpt#   8, nband= 32, wtk=  0.12500, kpt= -0.2500 -0.2500 -0.2500 (reduced coord)
  -0.75196  -0.75196  -0.74844  -0.74844  -0.74355  -0.74355  -0.74270  -0.74270
  -0.64507  -0.64507  -0.64239  -0.64239  -0.64108  -0.64108  -0.63898  -0.63898
  -0.63609  -0.63609  -0.63448  -0.63448  -0.30567  -0.30567  -0.16029  -0.16029
   0.06688   0.06689   0.12736   0.12736   0.14814   0.14814   0.17594   0.17594
 Total charge density [el/Bohr^3]
,     Maximum=    6.7425E-01  at reduced coord.    0.7778    0.7778    0.7778
,Next maximum=    6.7425E-01  at reduced coord.    0.2222    0.2222    0.2222
,     Minimum=    2.6394E-03  at reduced coord.    0.5185    0.5185    0.5185
,Next minimum=    2.6394E-03  at reduced coord.    0.4815    0.4815    0.4815
,  Integrated=    3.0000E+01
 x component of magnetization [el/Bohr^3]
,     Maximum=    3.6715E-07  at reduced coord.    0.8148    0.6296    0.8148
,Next maximum=    3.5189E-07  at reduced coord.    0.7778    0.6296    0.8519
,     Minimum=   -4.3991E-07  at reduced coord.    0.8519    0.7407    0.6667
,Next minimum=   -4.3842E-07  at reduced coord.    0.8519    0.7778    0.6296
,  Integrated=    2.3144E-07
 y component of magnetization [el/Bohr^3]
,     Maximum=    1.1482E-06  at reduced coord.    0.6667    0.6296    0.0000
,Next maximum=    1.1388E-06  at reduced coord.    0.6296    0.6667    0.0000
,     Minimum=   -1.3034E-06  at reduced coord.    0.4815    0.0741    0.1111
,Next minimum=   -1.2905E-06  at reduced coord.    0.4815    0.0741    0.1481
,  Integrated=    6.1265E-07
 z component of magnetization [el/Bohr^3]
,     Maximum=    1.2866E-06  at reduced coord.    0.2222    0.2222    0.2222
,Next maximum=    1.2698E-06  at reduced coord.    0.2593    0.2222    0.2222
,     Minimum=   -1.0760E-06  at reduced coord.    0.2963    0.3704    0.2593
,Next minimum=   -1.0635E-06  at reduced coord.    0.3333    0.3333    0.2593
,  Integrated=    2.9342E-06
 Magnetization (absolute value) [el/Bohr^3]
,     Maximum=    1.3633E-06  at reduced coord.    0.2222    0.2222    0.2222
,Next maximum=    1.3608E-06  at reduced coord.    0.4815    0.0741    0.1111
,     Minimum=    2.0404E-08  at reduced coord.    0.9630    0.5556    0.4815
,Next minimum=    2.2718E-08  at reduced coord.    0.4815    0.5556    0.9630
,  Integrated=    2.2377E-04
 Relative magnetization (=zeta, between -1 and 1)
,     Maximum=    7.9780E-05  at reduced coord.    0.4815    0.4444    0.4815
,Next maximum=    7.8373E-05  at reduced coord.    0.4444    0.4815    0.4815
,     Minimum=    9.5115E-08  at reduced coord.    0.6667    0.7037    0.7778
,Next minimum=    1.9693E-07  at reduced coord.    0.2222    0.2963    0.2963

--------------------------------------------------------------------------------
 Components of total free energy (in Hartree) :

    Kinetic energy  =  1.41685193910955E+01
    Hartree energy  =  2.85252599632995E+01
    XC energy       = -1.48849890849132E+01
    Ewald energy    = -1.01752594990660E+02
    PspCore energy  =  6.40783148571285E+00
    Loc. psp. energy= -8.60582802379049E+01
    Spherical terms =  9.39767082205582E+00
    >>>>>>>>> Etotal= -1.44196582651314E+02

 "Double-counting" decomposition of free energy:
    Band energy     = -1.39518999408000E+01
    Ewald energy    = -1.01752594990660E+02
    PspCore energy  =  6.40783148571285E+00
    Dble-C XC-energy= -2.40237147969801E+01
    Spherical terms = -1.08760328145917E+01
    >>>> Etotal (DC)= -1.44196411057319E+02

  >Total energy in eV           = -3.92378856182513E+03
  >Total DC energy in eV        = -3.92378389251504E+03
--------------------------------------------------------------------------------

 Cartesian components of stress tensor (hartree/bohr^3)
  sigma(1 1)=  7.92579141E-03  sigma(3 2)= -1.35971371E-09
  sigma(2 2)=  7.92579627E-03  sigma(3 1)= -5.66196361E-09
  sigma(3 3)=  8.19257213E-03  sigma(2 1)=  9.20353869E-10

-Cartesian components of stress tensor (GPa)         [Pressure= -2.3580E+02 GPa]
- sigma(1 1)=  2.33184795E+02  sigma(3 2)= -4.00041518E-05
- sigma(2 2)=  2.33184938E+02  sigma(3 1)= -1.66580693E-04
- sigma(3 3)=  2.41033753E+02  sigma(2 1)=  2.70777411E-05

== END DATASET(S) ==============================================================
================================================================================
  
 -outvars: echo values of variables after computation  --------
            acell      9.0000000000E+00  9.0000000000E+00  9.0000000000E+00 Bohr
              amu      2.08980370E+02
             ecut      5.00000000E+00 Hartree
           etotal1    -1.4419641102E+02
           etotal2    -1.4419641106E+02
            fcart1    -0.0000000000E+00 -0.0000000000E+00 -1.8727940544E-03
                      -0.0000000000E+00 -0.0000000000E+00  1.8727940544E-03
            fcart2    -3.4766558473E-06  2.2944851770E-06 -1.8413960553E-03
                       3.4766558473E-06 -2.2944851770E-06  1.8413960553E-03
-          fftalg         401
      fft_opt_lob           2
           iprcch           6
              ixc           7
           jdtset        1    2
              kpt1     2.50000000E-01  2.50000000E-01  2.50000000E-01
                      -2.50000000E-01  2.50000000E-01  2.50000000E-01
                      -2.50000000E-01 -2.50000000E-01  2.50000000E-01
                      -2.50000000E-01 -2.50000000E-01 -2.50000000E-01
              kpt2     2.50000000E-01  2.50000000E-01  2.50000000E-01
                      -2.50000000E-01  2.50000000E-01  2.50000000E-01
                       2.50000000E-01 -2.50000000E-01  2.50000000E-01
                      -2.50000000E-01 -2.50000000E-01  2.50000000E-01
                       2.50000000E-01  2.50000000E-01 -2.50000000E-01
                      -2.50000000E-01  2.50000000E-01 -2.50000000E-01
                       2.50000000E-01 -2.50000000E-01 -2.50000000E-01
                      -2.50000000E-01 -2.50000000E-01 -2.50000000E-01
           kptopt           4
         kptrlatt        2    0    0      0    2    0      0    0    2
          kptrlen      1.72466966E+01
P           mkmem1          4
P           mkmem2          8
            natom           2
            nband1         32
            nband2         32
           ndtset           2
            ngfft          20      20      20
          ngfftdg          27      27      27
             nkpt1          4
             nkpt2          8
-          npband           2
-        npspinor           2
           nspden1          1
           nspden2          4
          nspinor           2
            nstep          20
             nsym1          3
             nsym2          1
           ntypat           1
              occ1     1.000000  1.000000  1.000000  1.000000  1.000000  1.000000
                       1.000000  1.000000  1.000000  1.000000  1.000000  1.000000
                       1.000000  1.000000  1.000000  1.000000  1.000000  1.000000
                       1.000000  1.000000  1.000000  1.000000  1.000000  1.000000
                       1.000000  1.000000  1.000000  1.000000  1.000000  1.000000
                       0.000000  0.000000
              occ2     1.000000  1.000000  1.000000  1.000000  1.000000  1.000000
                       1.000000  1.000000  1.000000  1.000000  1.000000  1.000000
                       1.000000  1.000000  1.000000  1.000000  1.000000  1.000000
                       1.000000  1.000000  1.000000  1.000000  1.000000  1.000000
                       1.000000  1.000000  1.000000  1.000000  1.000000  1.000000
                       0.000000  0.000000
        paral_kgb           1
        pawcpxocc           2
        pawecutdg      1.00000000E+01 Hartree
        pawspnorb           1
           prtden           0
           prteig           0
            prtwf           0
            rprim      5.5318805038E-01  0.0000000000E+00  8.3305640920E-01
                      -2.7659402519E-01  4.7907490470E-01  8.3305640920E-01
                      -2.7659402519E-01 -4.7907490470E-01  8.3305640920E-01
           shiftk      5.00000000E-01  5.00000000E-01  5.00000000E-01
          spgroup1        146
          spgroup2          1
           spinat      0.0000000000E+00  0.0000000000E+00  1.2000000000E+00
                       0.0000000000E+00  1.1000000000E+00  0.0000000000E+00
           strten1     7.9258498643E-03  7.9258498643E-03  8.1927950599E-03
                       0.0000000000E+00  0.0000000000E+00  0.0000000000E+00
           strten2     7.9257914108E-03  7.9257962709E-03  8.1925721258E-03
                      -1.3597137113E-09 -5.6619636115E-09  9.2035386940E-10
           symafm1       1    1    1
           symafm2       1
           symrel1     1  0  0   0  1  0   0  0  1       0  0  1   1  0  0   0  1  0
                       0  1  0   0  0  1   1  0  0
           symrel2     1  0  0   0  1  0   0  0  1
            tnons1     0.0000000  0.0000000  0.0000000     0.0000000  0.0000000  0.0000000
                       0.0000000  0.0000000  0.0000000
            tnons2     0.0000000  0.0000000  0.0000000
           tolvrs      1.00000000E-07
            typat      1  1
           useylm           1
         wfoptalg          14
              wtk1       0.12500    0.37500    0.37500    0.12500
              wtk2       0.12500    0.12500    0.12500    0.12500    0.12500    0.12500
                         0.12500    0.12500
           xangst      0.0000000000E+00  0.0000000000E+00  2.7494845596E+00
                       0.0000000000E+00  0.0000000000E+00 -2.7494845596E+00
            xcart      0.0000000000E+00  0.0000000000E+00  5.1957728242E+00
                       0.0000000000E+00  0.0000000000E+00 -5.1957728242E+00
             xred      2.3100000000E-01  2.3100000000E-01  2.3100000000E-01
                      -2.3100000000E-01 -2.3100000000E-01 -2.3100000000E-01
            znucl       83.00000

================================================================================


- Timing analysis has been suppressed with timopt=0



================================================================================

 Suggested references for the acknowledgment of ABINIT usage.

 The users of ABINIT have little formal obligations with respect to the ABINIT group
 (those specified in the GNU General Public License, http://www.gnu.org/copyleft/gpl.txt).
 However, it is common practice in the scientific literature,
 to acknowledge the efforts of people that have made the research possible.
 In this spirit, please find below suggested citations of work written by ABINIT developers,
 corresponding to implementations inside of ABINIT that you have used in the present run.
 Note also that it will be of great value to readers of publications presenting these results,
 to read papers enabling them to understand the theoretical formalism and details
 of the ABINIT implementation.
 For information on why they are suggested, see also http://www.abinit.org/about/?text=acknowledgments.

 [1] Large scale ab initio calculations based on three levels of parallelization
 F. Bottin, S. Leroux, A. Knyazev, G. Zerah, Comput. Mat. Science 42, 329, (2008).
 Comment : in case paral_kgb is non-zero. Strong suggestion to cite this paper in your publications.
 This paper is also available at http://www.arxiv.org/abs/0707.3405

 [2] Implementation of the Projector Augmented-Wave Method in the ABINIT code.
 M. Torrent, F. Jollet, F. Bottin, G. Zerah, and X. Gonze Comput. Mat. Science 42, 337, (2008).
 Comment : PAW calculations. Strong suggestion to cite this paper.

 [3] ABINIT : First-principles approach of materials and nanosystem properties.
 X. Gonze, B. Amadon, P.-M. Anglade, J.-M. Beuken, F. Bottin, P. Boulanger, F. Bruneval,
 D. Caliste, R. Caracas, M. Cote, T. Deutsch, L. Genovese, Ph. Ghosez, M. Giantomassi
 S. Goedecker, D.R. Hamann, P. Hermet, F. Jollet, G. Jomard, S. Leroux, M. Mancini, S. Mazevet,
 M.J.T. Oliveira, G. Onida, Y. Pouillon, T. Rangel, G.-M. Rignanese, D. Sangalli, R. Shaltaf,
 M. Torrent, M.J. Verstraete, G. Zerah, J.W. Zwanziger
 Computer Phys. Comm. 180, 2582-2615 (2009).
 Comment : the third generic paper describing the ABINIT project.
 Note that a version of this paper, that is not formatted for Computer Phys. Comm. 
 is available at http://www.abinit.org/about/ABINIT_CPC_v10.pdf .
 The licence allows the authors to put it on the Web.

 [4] A brief introduction to the ABINIT software package.
 X. Gonze, G.-M. Rignanese, M. Verstraete, J.-M. Beuken, Y. Pouillon, R. Caracas, F. Jollet,
 M. Torrent, G. Zerah, M. Mikami, Ph. Ghosez, M. Veithen, J.-Y. Raty, V. Olevano, F. Bruneval,
 L. Reining, R. Godby, G. Onida, D.R. Hamann, and D.C. Allan.
 Z. Kristallogr. 220, 558-562 (2005).
 Comment : the second generic paper describing the ABINIT project. Note that this paper
 should be cited especially if you are using the GW part of ABINIT, as several authors
 of this part are not in the list of authors of the first or third paper.
 The .pdf of the latter paper is available at http://www.abinit.org/about/zfk_0505-06_558-562.pdf.
 Note that it should not redistributed (Copyright by Oldenburg Wissenshaftverlag,
 the licence allows the authors to put it on the Web).


 And optionally :

 [5] First-principles computation of material properties : the ABINIT software project. 
 X. Gonze, J.-M. Beuken, R. Caracas, F. Detraux, M. Fuchs, G.-M. Rignanese, L. Sindic,
 M. Verstraete, G. Zerah, F. Jollet, M. Torrent, A. Roy, M. Mikami, Ph. Ghosez, J.-Y. Raty, D.C. Allan.
 Computational Materials Science 25, 478-492 (2002). http://dx.doi.org/10.1016/S0927-0256(02)00325-7
 Comment : the original paper describing the ABINIT project.
-
- Proc.   0 individual time (sec): cpu=         16.6  wall=         16.7

================================================================================

 Calculation completed.
.Delivered    0 WARNINGs and   2 COMMENTs to log file.
+Overall time at end (sec) : cpu=         66.7  wall=         66.9
