
.Version 7.9.3 of ABINIT 
.(MPI version, prepared for a x86_64_linux_gnu4.7 computer) 

.Copyright (C) 1998-2014 ABINIT group . 
 ABINIT comes with ABSOLUTELY NO WARRANTY.
 It is free software, and you are welcome to redistribute it
 under certain conditions (GNU General Public License,
 see ~abinit/COPYING or http://www.gnu.org/copyleft/gpl.txt).

 ABINIT is a project of the Universite Catholique de Louvain,
 Corning Inc. and other collaborators, see ~abinit/doc/developers/contributors.txt .
 Please read ~abinit/doc/users/acknowledgments.html for suggested
 acknowledgments of the ABINIT effort.
 For more information, see http://www.abinit.org .

.Starting date : Sat 30 Aug 2014.
- ( at 10h11 )
  
- input  file    -> t41.in
- output file    -> t41_MPI4.out
- root for input  files -> t41_MPI4i
- root for output files -> t41_MPI4o


 Symmetries : space group P1 (#  1); Bravais aP (primitive triclinic)
================================================================================
 Values of the parameters that define the memory need of the present run
   intxc =         0  ionmov =        12    iscf =        17 xclevel =         1
  lmnmax =        18   lnmax =         6   mband =       200  mffmem =         1
P  mgfft =        20   mkmem =         1 mpssoang=         3     mpw =       138
  mqgrid =      5000   natom =         8    nfft =      4000    nkpt =         1
  nloalg =         4  nspden =         1 nspinor =         1  nsppol =         1
    nsym =         1  n1xccc =         1  ntypat =         1  occopt =         3
Pmy_natom=         4
 PAW method is used; the additional fine FFT grid is defined by:
   mgfftf=       100    nfftf =    500000
================================================================================
P This job should need less than                     144.952 Mbytes of memory.
  Rough estimation (10% accuracy) of disk space for files :
_ WF disk file :      0.844 Mbytes ; DEN or POT disk file :      3.817 Mbytes.
================================================================================

--------------------------------------------------------------------------------
------------- Echo of variables that govern the present computation ------------
--------------------------------------------------------------------------------
-
- outvars: echo of selected default values                                      
-   accesswff0 =  0 , fftalg0 =112 , wfoptalg0 = 10
-
- outvars: echo of global parameters not present in the input file              
-  max_nthreads =    0
-
 -outvars: echo values of preprocessed input variables --------
            acell      1.5706000000E+01  1.5706000000E+01  1.5706000000E+01 Bohr
              amu      1.96966550E+02
             ecut      2.00000000E+00 Hartree
           enunit           2
-          fftalg         401
      fft_opt_lob           2
           ionmov          12
           iprcch           6
           istwfk        1
              ixc           7
              kpt      5.00000000E-01  5.00000000E-01  5.00000000E-01
         kptrlatt        1    0    0      0    1    0      0    0    1
          kptrlen      1.57060000E+01
           mdtemp      3.00000000E+03  3.00000000E+03
P           mkmem           1
            natom           8
            nband         200
           nctime           1
            ngfft          20      20      20
          ngfftdg         100     100     100
             nkpt           1
           nloalg           4
-          npband           2
-           npfft           2
            nstep           2
             nsym           1
            ntime           2
           ntypat           1
              occ      2.000000  2.000000  2.000000  2.000000  2.000000  2.000000
                       2.000000  2.000000  2.000000  2.000000  2.000000  2.000000
                       2.000000  2.000000  2.000000  2.000000  2.000000  2.000000
                       2.000000  2.000000  2.000000  2.000000  2.000000  2.000000
                       2.000000  2.000000  2.000000  2.000000  2.000000  2.000000
                       2.000000  2.000000  2.000000  2.000000  2.000000  2.000000
                       2.000000  2.000000  2.000000  2.000000  2.000000  2.000000
                       2.000000  2.000000  0.000000  0.000000  0.000000  0.000000
                       0.000000  0.000000  0.000000  0.000000  0.000000  0.000000
                       0.000000  0.000000  0.000000  0.000000  0.000000  0.000000
                       0.000000  0.000000  0.000000  0.000000  0.000000  0.000000
                       0.000000  0.000000  0.000000  0.000000  0.000000  0.000000
                       0.000000  0.000000  0.000000  0.000000  0.000000  0.000000
                       0.000000  0.000000  0.000000  0.000000  0.000000  0.000000
                       0.000000  0.000000  0.000000  0.000000  0.000000  0.000000
                       0.000000  0.000000  0.000000  0.000000  0.000000  0.000000
                       0.000000  0.000000  0.000000  0.000000  0.000000  0.000000
                       0.000000  0.000000  0.000000  0.000000  0.000000  0.000000
                       0.000000  0.000000  0.000000  0.000000  0.000000  0.000000
                       0.000000  0.000000  0.000000  0.000000  0.000000  0.000000
                       0.000000  0.000000  0.000000  0.000000  0.000000  0.000000
                       0.000000  0.000000  0.000000  0.000000  0.000000  0.000000
                       0.000000  0.000000  0.000000  0.000000  0.000000  0.000000
                       0.000000  0.000000  0.000000  0.000000  0.000000  0.000000
                       0.000000  0.000000  0.000000  0.000000  0.000000  0.000000
                       0.000000  0.000000  0.000000  0.000000  0.000000  0.000000
                       0.000000  0.000000  0.000000  0.000000  0.000000  0.000000
                       0.000000  0.000000  0.000000  0.000000  0.000000  0.000000
                       0.000000  0.000000  0.000000  0.000000  0.000000  0.000000
                       0.000000  0.000000  0.000000  0.000000  0.000000  0.000000
                       0.000000  0.000000  0.000000  0.000000  0.000000  0.000000
                       0.000000  0.000000  0.000000  0.000000  0.000000  0.000000
                       0.000000  0.000000  0.000000  0.000000  0.000000  0.000000
                       0.000000  0.000000
           occopt           3
        paral_kgb           1
        pawecutdg      5.00000000E+01 Hartree
         pawmixdg           1
          pawovlp     -1.0000000000E+00
           shiftk      5.00000000E-01  5.00000000E-01  5.00000000E-01
          spgroup           1
           toldfe      1.00000000E-07 Hartree
           tsmear      9.50078000E-03 Hartree
            typat      1  1  1  1  1  1  1  1
           useylm           1
         wfoptalg           4
           xangst      2.5519281028E+00  1.6114490279E+00  6.7508955038E-01
                       5.7164224569E-01  1.5836187868E+00  2.6225793198E+00
                       4.2417069474E-01  7.7354298178E+00  6.5395957668E-01
                       4.5778293663E-01  7.7652284891E+00  4.6447782278E+00
                       2.5539780247E+00  5.6604263485E+00  7.0838567183E-01
                       2.5385689332E+00  3.6752451759E+00  2.7292285129E+00
                       4.9147673203E-01  3.6296507615E+00  5.3736717260E-01
                       6.0610092253E-01  5.8537778749E+00  6.8189973224E+00
            xcart      4.8224452251E+00  3.0451973397E+00  1.2757343654E+00
                       1.0802472903E+00  2.9926058060E+00  4.9559566762E+00
                       8.0156644665E-01  1.4617843876E+01  1.2358045019E+00
                       8.6508437855E-01  1.4674155204E+01  8.7773587985E+00
                       4.8263190160E+00  1.0696655594E+01  1.3386549162E+00
                       4.7972000532E+00  6.9452068536E+00  5.1574944434E+00
                       9.2875642423E-01  6.8590458972E+00  1.0154767890E+00
                       1.1453647525E+00  1.1062037026E+01  1.2886037440E+01
             xred      3.0704477429E-01  1.9388751686E-01  8.1225924194E-02
                       6.8779274821E-02  1.9053901732E-01  3.1554543972E-01
                       5.1035683602E-02  9.3071717024E-01  7.8683592379E-02
                       5.5079866201E-02  9.3430250883E-01  5.5885386467E-01
                       3.0729141831E-01  6.8105536699E-01  8.5232071579E-02
                       3.0543741584E-01  4.4220086932E-01  3.2837733626E-01
                       5.9133861214E-02  4.3671500683E-01  6.4655341208E-02
                       7.2925299406E-02  7.0431917906E-01  8.2045316696E-01
            znucl       79.00000

================================================================================

 chkinp: Checking input parameters for consistency.

================================================================================
== DATASET  1 ==================================================================
-   nproc =    4

 Exchange-correlation functional for the present dataset will be:
  LDA: Perdew-Wang 92 LSD fit to Ceperley-Alder data - ixc=7
 Citation for XC functional:
  J.P.Perdew and Y.Wang, PRB 45, 13244 (1992)

 Real(R)+Recip(G) space primitive vectors, cartesian coordinates (Bohr,Bohr^-1):
 R(1)= 15.7060000  0.0000000  0.0000000  G(1)=  0.0636699  0.0000000  0.0000000
 R(2)=  0.0000000 15.7060000  0.0000000  G(2)=  0.0000000  0.0636699  0.0000000
 R(3)=  0.0000000  0.0000000 15.7060000  G(3)=  0.0000000  0.0000000  0.0636699
 Unit cell volume ucvol=  3.8743315E+03 bohr^3
 Angles (23,13,12)=  9.00000000E+01  9.00000000E+01  9.00000000E+01 degrees

 Coarse grid specifications (used for wave-functions):

 getcut: wavevector=  0.0000  0.0000  0.0000  ngfft=  20  20  20
         ecut(hartree)=      2.000   => boxcut(ratio)=   2.00025

 Fine grid specifications (used for densities):

 getcut: wavevector=  0.0000  0.0000  0.0000  ngfft= 100 100 100
         ecut(hartree)=     50.000   => boxcut(ratio)=   2.00025

--- Pseudopotential description ------------------------------------------------
- pspini: atom type   1  psp file is /data/ABINIT/testf_gcc47/trunk_7.9.3-private/tests/Psps_for_tests/Au.lda.atompaw
- pspatm: opening atomic psp file    /data/ABINIT/testf_gcc47/trunk_7.9.3-private/tests/Psps_for_tests/Au.lda.atompaw
- Paw atomic data for element Au - Generated by AtomPAW + AtomPAW2Abinit v3.2.1
- 79.00000  11.00000  20071206                znucl, zion, pspdat
    7    7    2    0      1005   0.00000      pspcod,pspxc,lmax,lloc,mmax,r2well
 Pseudopotential format is: paw4
 basis_size (lnmax)=  6 (lmn_size= 18), orbitals=   0   0   1   1   2   2
 Spheres core radius: rc_sph= 2.50000000
 4 radial meshes are used:
  - mesh 1: r(i)=AA*[exp(BB*(i-1))-1], size=1005 , AA= 0.12544E-03 BB= 0.99099E-02
  - mesh 2: r(i)=AA*[exp(BB*(i-1))-1], size=1000 , AA= 0.12544E-03 BB= 0.99099E-02
  - mesh 3: r(i)=AA*[exp(BB*(i-1))-1], size=1079 , AA= 0.12544E-03 BB= 0.99099E-02
  - mesh 4: r(i)=AA*[exp(BB*(i-1))-1], size=1139 , AA= 0.12544E-03 BB= 0.99099E-02
 Shapefunction is SIN type: shapef(r)=[sin(pi*r/rshp)/(pi*r/rshp)]**2
 Radius for shape functions =  2.26412037
 Radial grid used for partial waves is grid 1
 Radial grid used for projectors is grid  2
 Radial grid used for (t)core density is grid 3
 Radial grid used for Vloc is grid 4
 Radial grid used for pseudo valence density is grid 4
 Compensation charge density is taken into account in XC energy/potential
 pspatm: atomic psp has been read  and splines computed

   2.68631439E+04                                ecore*ucvol(ha*bohr**3)
--------------------------------------------------------------------------------

P newkpt: treating    200 bands with npw=     138 for ikpt=   1 by node    0

_setup2: Arith. and geom. avg. npw (full set) are     138.000     138.000

================================================================================

=== [ionmov=12] Isokinetic ensemble molecular dynamics                      
================================================================================

--- Iteration: (1/2) Internal Cycle: (1/1)
--------------------------------------------------------------------------------

---SELF-CONSISTENT-FIELD CONVERGENCE--------------------------------------------

     iter   Etot(hartree)      deltaE(h)  residm     nres2
 ETOT  1  -261.14226646623    -2.611E+02 2.950E-03 1.853E+03
 ETOT  2  -248.68224684657     1.246E+01 3.614E-04 1.078E+02

 Cartesian components of stress tensor (hartree/bohr^3)
  sigma(1 1)=  7.13524247E-03  sigma(3 2)= -1.00570091E-04
  sigma(2 2)=  7.19355291E-03  sigma(3 1)=  1.28511412E-04
  sigma(3 3)=  7.12080146E-03  sigma(2 1)= -1.28011474E-05


 scprqt:  WARNING -
  nstep=    2 was not enough SCF cycles to converge;
  maximum energy difference=  1.246E+01 exceeds toldfe=  1.000E-07


 PAW TEST:
 ==== Compensation charge inside spheres ============
 The following values must be close to each other ...
 Compensation charge over spherical meshes =     19.475044815852790
 Compensation charge over fine fft grid    =     19.291037032505219

 ==== Results concerning PAW augmentation regions ====

 Total pseudopotential strength Dij (hartree):
 Atom #  1
   0.59961  -2.46545  -0.00000   0.00025  -0.00031   0.00000  -0.00366   0.00446  -0.00005  -0.00000  -0.00013  -0.00003 ...
  -2.46545  11.32400   0.00002  -0.00106   0.00130  -0.00019   0.01424  -0.01772   0.00009  -0.00008   0.00021   0.00030 ...
  -0.00000   0.00002   0.04559   0.00001  -0.00001  -0.65331  -0.00006   0.00012  -0.00042   0.00042  -0.00005  -0.00002 ...
   0.00025  -0.00106   0.00001   0.04558  -0.00004  -0.00006  -0.65294   0.00044  -0.00002   0.00008   0.00049  -0.00046 ...
  -0.00031   0.00130  -0.00001  -0.00004   0.04559   0.00012   0.00044  -0.65306   0.00009  -0.00002   0.00025   0.00042 ...
   0.00000  -0.00019  -0.65331  -0.00006   0.00012  11.18721   0.00094  -0.00143   0.00323  -0.00311   0.00036   0.00010 ...
  -0.00366   0.01424  -0.00006  -0.65294   0.00044   0.00094  11.18152  -0.00542   0.00010  -0.00059  -0.00364   0.00336 ...
   0.00446  -0.01772   0.00012   0.00044  -0.65306  -0.00143  -0.00542  11.18306  -0.00065   0.00010  -0.00197  -0.00302 ...
  -0.00005   0.00009  -0.00042  -0.00002   0.00009   0.00323   0.00010  -0.00065  -0.72836  -0.00057  -0.00018   0.00026 ...
  -0.00000  -0.00008   0.00042   0.00008  -0.00002  -0.00311  -0.00059   0.00010  -0.00057  -0.72830   0.00004  -0.00003 ...
  -0.00013   0.00021  -0.00005   0.00049   0.00025   0.00036  -0.00364  -0.00197  -0.00018   0.00004  -0.72741  -0.00044 ...
  -0.00003   0.00030  -0.00002  -0.00046   0.00042   0.00010   0.00336  -0.00302   0.00026  -0.00003  -0.00044  -0.72775 ...
   ...  only 12  components have been written...
 Atom #  8
   0.60824  -2.50085   0.00006   0.00008   0.00005  -0.00082  -0.00120  -0.00081  -0.00007  -0.00010   0.00017  -0.00007 ...
  -2.50085  11.46198  -0.00024  -0.00034  -0.00024   0.00361   0.00465   0.00329   0.00010   0.00011  -0.00035  -0.00011 ...
   0.00006  -0.00024   0.04495   0.00001  -0.00000  -0.65089  -0.00004   0.00009   0.00009   0.00017  -0.00003   0.00000 ...
   0.00008  -0.00034   0.00001   0.04499   0.00002  -0.00004  -0.65130  -0.00013   0.00000  -0.00001   0.00022   0.00006 ...
   0.00005  -0.00024  -0.00000   0.00002   0.04496   0.00009  -0.00013  -0.65066   0.00002   0.00000  -0.00005   0.00017 ...
  -0.00082   0.00361  -0.65089  -0.00004   0.00009  11.20545  -0.00011  -0.00116  -0.00065  -0.00131   0.00029  -0.00002 ...
  -0.00120   0.00465  -0.00004  -0.65130  -0.00013  -0.00011  11.21067   0.00167  -0.00002  -0.00002  -0.00160  -0.00049 ...
  -0.00081   0.00329   0.00009  -0.00013  -0.65066  -0.00116   0.00167  11.20141  -0.00029  -0.00002   0.00037  -0.00130 ...
  -0.00007   0.00010   0.00009   0.00000   0.00002  -0.00065  -0.00002  -0.00029  -0.75696   0.00058  -0.00038   0.00057 ...
  -0.00010   0.00011   0.00017  -0.00001   0.00000  -0.00131  -0.00002  -0.00002   0.00058  -0.75830   0.00003  -0.00005 ...
   0.00017  -0.00035  -0.00003   0.00022  -0.00005   0.00029  -0.00160   0.00037  -0.00038   0.00003  -0.75730   0.00027 ...
  -0.00007  -0.00011   0.00000   0.00006   0.00017  -0.00002  -0.00049  -0.00130   0.00057  -0.00005   0.00027  -0.75702 ...
   ...  only 12  components have been written...

 Total pseudopotential strength Dij (eV):
 Atom #  1
  16.31614 -67.08843  -0.00014   0.00694  -0.00837   0.00001  -0.09952   0.12124  -0.00137  -0.00007  -0.00348  -0.00069 ...
 -67.08843 308.14162   0.00055  -0.02883   0.03527  -0.00507   0.38746  -0.48229   0.00241  -0.00223   0.00578   0.00804 ...
  -0.00014   0.00055   1.24045   0.00016  -0.00025 -17.77737  -0.00172   0.00316  -0.01155   0.01143  -0.00132  -0.00046 ...
   0.00694  -0.02883   0.00016   1.24022  -0.00118  -0.00172 -17.76747   0.01201  -0.00046   0.00206   0.01329  -0.01250 ...
  -0.00837   0.03527  -0.00025  -0.00118   1.24048   0.00316   0.01201 -17.77056   0.00242  -0.00046   0.00691   0.01149 ...
   0.00001  -0.00507 -17.77737  -0.00172   0.00316 304.41939   0.02553  -0.03888   0.08787  -0.08463   0.00973   0.00261 ...
  -0.09952   0.38746  -0.00172 -17.76747   0.01201   0.02553 304.26470  -0.14746   0.00261  -0.01610  -0.09913   0.09152 ...
   0.12124  -0.48229   0.00316   0.01201 -17.77056  -0.03888  -0.14746 304.30663  -0.01774   0.00261  -0.05357  -0.08231 ...
  -0.00137   0.00241  -0.01155  -0.00046   0.00242   0.08787   0.00261  -0.01774 -19.81957  -0.01556  -0.00497   0.00714 ...
  -0.00007  -0.00223   0.01143   0.00206  -0.00046  -0.08463  -0.01610   0.00261  -0.01556 -19.81813   0.00099  -0.00095 ...
  -0.00348   0.00578  -0.00132   0.01329   0.00691   0.00973  -0.09913  -0.05357  -0.00497   0.00099 -19.79382  -0.01194 ...
  -0.00069   0.00804  -0.00046  -0.01250   0.01149   0.00261   0.09152  -0.08231   0.00714  -0.00095  -0.01194 -19.80311 ...
   ...  only 12  components have been written...
 Atom #  8
  16.55102 -68.05160   0.00153   0.00212   0.00149  -0.02218  -0.03263  -0.02200  -0.00183  -0.00260   0.00467  -0.00182 ...
 -68.05160 311.89625  -0.00646  -0.00916  -0.00643   0.09834   0.12660   0.08950   0.00278   0.00292  -0.00949  -0.00299 ...
   0.00153  -0.00646   1.22324   0.00032  -0.00013 -17.71174  -0.00103   0.00233   0.00237   0.00470  -0.00077   0.00007 ...
   0.00212  -0.00916   0.00032   1.22423   0.00044  -0.00103 -17.72270  -0.00353   0.00007  -0.00036   0.00599   0.00175 ...
   0.00149  -0.00643  -0.00013   0.00044   1.22343   0.00233  -0.00353 -17.70549   0.00049   0.00007  -0.00125   0.00466 ...
  -0.02218   0.09834 -17.71174  -0.00103   0.00233 304.91575  -0.00299  -0.03166  -0.01769  -0.03557   0.00797  -0.00066 ...
  -0.03263   0.12660  -0.00103 -17.72270  -0.00353  -0.00299 305.05786   0.04555  -0.00066  -0.00048  -0.04365  -0.01323 ...
  -0.02200   0.08950   0.00233  -0.00353 -17.70549  -0.03166   0.04555 304.80581  -0.00782  -0.00066   0.01003  -0.03548 ...
  -0.00183   0.00278   0.00237   0.00007   0.00049  -0.01769  -0.00066  -0.00782 -20.59788   0.01587  -0.01035   0.01541 ...
  -0.00260   0.00292   0.00470  -0.00036   0.00007  -0.03557  -0.00048  -0.00066   0.01587 -20.63427   0.00094  -0.00124 ...
   0.00467  -0.00949  -0.00077   0.00599  -0.00125   0.00797  -0.04365   0.01003  -0.01035   0.00094 -20.60717   0.00728 ...
  -0.00182  -0.00299   0.00007   0.00175   0.00466  -0.00066  -0.01323  -0.03548   0.01541  -0.00124   0.00728 -20.59948 ...
   ...  only 12  components have been written...

 Augmentation waves occupancies Rhoij:
 Atom #  1
   1.25393  -0.17671   0.02736   0.09265  -0.05883   0.00178   0.00167  -0.00288   0.05431  -0.06454  -0.02422   0.09024 ...
  -0.17671   0.02988   0.01226   0.00395  -0.00637  -0.00012  -0.00018   0.00047  -0.00466   0.01305  -0.00236  -0.03964 ...
   0.02736   0.01226   0.64918   0.18561  -0.09045   0.01152   0.00594  -0.00340  -0.11944   0.11268  -0.03979   0.05336 ...
   0.09265   0.00395   0.18561   0.53566  -0.18757   0.00504   0.01103  -0.00578   0.04595   0.07039   0.09703  -0.26542 ...
  -0.05883  -0.00637  -0.09045  -0.18757   0.69288  -0.00494  -0.00786   0.01488   0.05147   0.00581   0.02358   0.22604 ...
   0.00178  -0.00012   0.01152   0.00504  -0.00494   0.00056   0.00021  -0.00018   0.00097   0.00167  -0.00249   0.00114 ...
   0.00167  -0.00018   0.00594   0.01103  -0.00786   0.00021   0.00070  -0.00029   0.00157   0.00485  -0.00198  -0.00501 ...
  -0.00288   0.00047  -0.00340  -0.00578   0.01488  -0.00018  -0.00029   0.00087   0.00404   0.00094  -0.00314   0.00493 ...
   0.05431  -0.00466  -0.11944   0.04595   0.05147   0.00097   0.00157   0.00404   1.27620  -0.05073  -0.05483   0.04026 ...
  -0.06454   0.01305   0.11268   0.07039   0.00581   0.00167   0.00485   0.00094  -0.05073   1.23896   0.02349  -0.01981 ...
  -0.02422  -0.00236  -0.03979   0.09703   0.02358  -0.00249  -0.00198  -0.00314  -0.05483   0.02349   1.37957   0.07164 ...
   0.09024  -0.03964   0.05336  -0.26542   0.22604   0.00114  -0.00501   0.00493   0.04026  -0.01981   0.07164   0.95349 ...
   ...  only 12  components have been written...
 Atom #  8
   1.14013  -0.18035   0.06706  -0.04844  -0.00646   0.00262   0.00207   0.00063  -0.00667   0.06502   0.01899   0.00385 ...
  -0.18035   0.03593   0.00090   0.00786   0.00431  -0.00086  -0.00087  -0.00025  -0.00239  -0.01597   0.01998   0.00845 ...
   0.06706   0.00090   0.75993  -0.06150  -0.05820   0.01041  -0.00227  -0.00180  -0.01488  -0.00513   0.01758   0.00794 ...
  -0.04844   0.00786  -0.06150   1.00785   0.19400   0.00119   0.01077   0.00700   0.00376   0.05724   0.01885  -0.01876 ...
  -0.00646   0.00431  -0.05820   0.19400   0.33088  -0.00095   0.00273   0.00172   0.00486   0.00303  -0.00860   0.03298 ...
   0.00262  -0.00086   0.01041   0.00119  -0.00095   0.00090  -0.00007   0.00011   0.00023  -0.00170  -0.00082  -0.00106 ...
   0.00207  -0.00087  -0.00227   0.01077   0.00273  -0.00007   0.00080   0.00013   0.00009   0.00203  -0.00155  -0.00016 ...
   0.00063  -0.00025  -0.00180   0.00700   0.00172   0.00011   0.00013   0.00048  -0.00049  -0.00040   0.00002  -0.00100 ...
  -0.00667  -0.00239  -0.01488   0.00376   0.00486   0.00023   0.00009  -0.00049   1.46115  -0.00468  -0.00065  -0.02176 ...
   0.06502  -0.01597  -0.00513   0.05724   0.00303  -0.00170   0.00203  -0.00040  -0.00468   1.31175  -0.01056   0.01035 ...
   0.01899   0.01998   0.01758   0.01885  -0.00860  -0.00082  -0.00155   0.00002  -0.00065  -0.01056   1.51078  -0.00233 ...
   0.00385   0.00845   0.00794  -0.01876   0.03298  -0.00106  -0.00016  -0.00100  -0.02176   0.01035  -0.00233   1.44018 ...
   ...  only 12  components have been written...



---OUTPUT-----------------------------------------------------------------------

 Cartesian coordinates (xcart) [bohr]
  4.82244522505999E+00  3.04519733974338E+00  1.27573436538875E+00
  1.08024729034305E+00  2.99260580602288E+00  4.95595667624474E+00
  8.01566446654498E-01  1.46178438757658E+01  1.23580450190604E+00
  8.65084378547967E-01  1.46741552037001E+01  8.77735879850388E+00
  4.82631901603937E+00  1.06966555939913E+01  1.33865491621196E+00
  4.79720005315542E+00  6.94520685356856E+00  5.15749444335699E+00
  9.28756424225867E-01  6.85904589724541E+00  1.01547678901255E+00
  1.14536475247145E+00  1.10620370262861E+01  1.28860374403000E+01
 Reduced coordinates (xred)
  3.07044774293900E-01  1.93887516856194E-01  8.12259241938591E-02
  6.87792748212814E-02  1.90539017319679E-01  3.15545439720154E-01
  5.10356836020946E-02  9.30717170238495E-01  7.86835923790932E-02
  5.50798662006855E-02  9.34302508831024E-01  5.58853864669800E-01
  3.07291418313980E-01  6.81055366992951E-01  8.52320715785027E-02
  3.05437415838242E-01  4.42200869321823E-01  3.28377336263657E-01
  5.91338612139225E-02  4.36715006828308E-01  6.46553412079811E-02
  7.29252994060516E-02  7.04319179058075E-01  8.20453166961670E-01
 Cartesian forces (fcart) [Ha/bohr]; max,rms= 4.87889E-01 2.10135E-01 (free atoms)
 -4.87889386903590E-01  8.40509346203638E-02  4.09953760645262E-01
  2.49175138730646E-01 -1.96866842786840E-01 -1.65101947717616E-01
  9.65980454963444E-02 -2.52798565901668E-01 -3.64039832601200E-02
  1.20351338984061E-01 -1.14327932111436E-01  4.72945311577505E-02
 -2.81302316788796E-01 -1.15291640466273E-01 -2.08886441442432E-02
 -9.52931142903046E-02  1.53982524271641E-01 -2.79352451436119E-01
  2.85904678538743E-01  2.91743601336711E-01 -3.94341206370331E-02
  1.12455616232895E-01  1.49507921037502E-01  8.39328553921187E-02
 Reduced forces (fred)
  9.86811540745189E+00 -1.25336595363393E+00 -6.62129307781199E+00
 -1.70822003215941E+00  3.15872865832362E+00  2.41053187773538E+00
  6.88155794178532E-01  4.03719230156510E+00  3.89201647965939E-01
  3.15086566660451E-01  1.86237252725573E+00 -9.25367219481135E-01
  6.62345888422894E+00  1.87750853067679E+00  1.45517731811977E-01
  3.70199834978764E+00 -2.35171150069689E+00  4.20495028913817E+00
 -2.28509418438539E+00 -4.51538697708087E+00  4.36792985607735E-01
  4.39096788190268E-01 -2.28143338230149E+00 -1.50080873990612E+00
 Cartesian velocities (vel) [bohr*Ha/hbar]; max,rms= 0.00000E+00 0.00000E+00 (free atoms)
  0.00000000000000E+00  0.00000000000000E+00  0.00000000000000E+00
  0.00000000000000E+00  0.00000000000000E+00  0.00000000000000E+00
  0.00000000000000E+00  0.00000000000000E+00  0.00000000000000E+00
  0.00000000000000E+00  0.00000000000000E+00  0.00000000000000E+00
  0.00000000000000E+00  0.00000000000000E+00  0.00000000000000E+00
  0.00000000000000E+00  0.00000000000000E+00  0.00000000000000E+00
  0.00000000000000E+00  0.00000000000000E+00  0.00000000000000E+00
  0.00000000000000E+00  0.00000000000000E+00  0.00000000000000E+00
 Kinetic energy of ions (ekin) [Ha]=  0.00000000000000E+00
 Total energy (etotal) [Ha]= -2.48682246846565E+02

--- Iteration: (2/2) Internal Cycle: (1/1)
--------------------------------------------------------------------------------

---SELF-CONSISTENT-FIELD CONVERGENCE--------------------------------------------

     iter   Etot(hartree)      deltaE(h)  residm     nres2
 ETOT  1  -249.37427848628    -2.494E+02 1.718E-04 1.369E+02
 ETOT  2  -248.56678995821     8.075E-01 7.288E-05 5.261E+01

 Cartesian components of stress tensor (hartree/bohr^3)
  sigma(1 1)=  1.17391596E-02  sigma(3 2)= -1.32202465E-04
  sigma(2 2)=  1.18346251E-02  sigma(3 1)=  1.10444799E-04
  sigma(3 3)=  1.17852997E-02  sigma(2 1)= -6.26588677E-05


 scprqt:  WARNING -
  nstep=    2 was not enough SCF cycles to converge;
  maximum energy difference=  8.075E-01 exceeds toldfe=  1.000E-07


 PAW TEST:
 ==== Compensation charge inside spheres ============
 The following values must be close to each other ...
 Compensation charge over spherical meshes =     19.253836690477264
 Compensation charge over fine fft grid    =     19.575942049272868

 ==== Results concerning PAW augmentation regions ====

 Total pseudopotential strength Dij (hartree):
 Atom #  1
   0.66227  -2.70869  -0.00001  -0.00011   0.00014   0.00033   0.00075  -0.00028  -0.00029  -0.00000   0.00034  -0.00046 ...
  -2.70869  12.24784   0.00010   0.00032  -0.00026  -0.00190  -0.00166  -0.00168   0.00045  -0.00009  -0.00041   0.00076 ...
  -0.00001   0.00010   0.04787   0.00001  -0.00002  -0.69940  -0.00016   0.00038  -0.00013   0.00005  -0.00004  -0.00001 ...
  -0.00011   0.00032   0.00001   0.04795  -0.00005  -0.00016  -0.70068   0.00080  -0.00001   0.00004   0.00005  -0.00019 ...
   0.00014  -0.00026  -0.00002  -0.00005   0.04790   0.00038   0.00080  -0.70003   0.00006  -0.00001   0.00007   0.00006 ...
   0.00033  -0.00190  -0.69940  -0.00016   0.00038  11.88013   0.00218  -0.00492   0.00233  -0.00105   0.00019   0.00003 ...
   0.00075  -0.00166  -0.00016  -0.70068   0.00080   0.00218  11.89617  -0.01072   0.00003  -0.00023  -0.00120   0.00256 ...
  -0.00028  -0.00168   0.00038   0.00080  -0.70003  -0.00492  -0.01072  11.88849  -0.00032   0.00003  -0.00132  -0.00106 ...
  -0.00029   0.00045  -0.00013  -0.00001   0.00006   0.00233   0.00003  -0.00032  -0.87845   0.00069  -0.00092   0.00027 ...
  -0.00000  -0.00009   0.00005   0.00004  -0.00001  -0.00105  -0.00023   0.00003   0.00069  -0.87946   0.00016   0.00059 ...
   0.00034  -0.00041  -0.00004   0.00005   0.00007   0.00019  -0.00120  -0.00132  -0.00092   0.00016  -0.87993   0.00068 ...
  -0.00046   0.00076  -0.00001  -0.00019   0.00006   0.00003   0.00256  -0.00106   0.00027   0.00059   0.00068  -0.88138 ...
   ...  only 12  components have been written...
 Atom #  8
   0.67383  -2.76046  -0.00031  -0.00036   0.00005   0.00416   0.00484  -0.00048   0.00008   0.00058  -0.00029  -0.00047 ...
  -2.76046  12.43869   0.00126   0.00147  -0.00015  -0.01604  -0.01939   0.00138  -0.00007   0.00067  -0.00029  -0.00035 ...
  -0.00031   0.00126   0.04232  -0.00008   0.00001  -0.65312   0.00042  -0.00012   0.00007  -0.00031   0.00018   0.00000 ...
  -0.00036   0.00147  -0.00008   0.04236   0.00005   0.00042  -0.65333  -0.00013   0.00000  -0.00040  -0.00034   0.00005 ...
   0.00005  -0.00015   0.00001   0.00005   0.04225  -0.00012  -0.00013  -0.65287  -0.00035   0.00000  -0.00004  -0.00029 ...
   0.00416  -0.01604  -0.65312   0.00042  -0.00012  11.50301  -0.00433   0.00175  -0.00038   0.00217  -0.00122  -0.00002 ...
   0.00484  -0.01939   0.00042  -0.65333  -0.00013  -0.00433  11.50565   0.00104  -0.00002   0.00262   0.00238  -0.00032 ...
  -0.00048   0.00138  -0.00012  -0.00013  -0.65287   0.00175   0.00104  11.50096   0.00233  -0.00002   0.00021   0.00205 ...
   0.00008  -0.00007   0.00007   0.00000  -0.00035  -0.00038  -0.00002   0.00233  -0.99070   0.00251   0.00005  -0.00392 ...
   0.00058   0.00067  -0.00031  -0.00040   0.00000   0.00217   0.00262  -0.00002   0.00251  -0.98567  -0.00250  -0.00055 ...
  -0.00029  -0.00029   0.00018  -0.00034  -0.00004  -0.00122   0.00238   0.00021   0.00005  -0.00250  -0.98393   0.00175 ...
  -0.00047  -0.00035   0.00000   0.00005  -0.00029  -0.00002  -0.00032   0.00205  -0.00392  -0.00055   0.00175  -0.98872 ...
   ...  only 12  components have been written...

 Total pseudopotential strength Dij (eV):
 Atom #  1
  18.02137 -73.70710  -0.00040  -0.00312   0.00389   0.00893   0.02044  -0.00774  -0.00792  -0.00001   0.00924  -0.01263 ...
 -73.70710 333.28073   0.00277   0.00866  -0.00699  -0.05181  -0.04524  -0.04561   0.01235  -0.00237  -0.01112   0.02056 ...
  -0.00040   0.00277   1.30250   0.00040  -0.00064 -19.03152  -0.00439   0.01035  -0.00345   0.00138  -0.00100  -0.00014 ...
  -0.00312   0.00866   0.00040   1.30484  -0.00144  -0.00439 -19.06642   0.02179  -0.00014   0.00112   0.00143  -0.00513 ...
   0.00389  -0.00699  -0.00064  -0.00144   1.30352   0.01035   0.02179 -19.04878   0.00170  -0.00014   0.00180   0.00161 ...
   0.00893  -0.05181 -19.03152  -0.00439   0.01035 323.27491   0.05928  -0.13388   0.06351  -0.02846   0.00508   0.00071 ...
   0.02044  -0.04524  -0.00439 -19.06642   0.02179   0.05928 323.71121  -0.29161   0.00071  -0.00618  -0.03274   0.06970 ...
  -0.00774  -0.04561   0.01035   0.02179 -19.04878  -0.13388  -0.29161 323.50231  -0.00865   0.00071  -0.03587  -0.02883 ...
  -0.00792   0.01235  -0.00345  -0.00014   0.00170   0.06351   0.00071  -0.00865 -23.90375   0.01865  -0.02514   0.00732 ...
  -0.00001  -0.00237   0.00138   0.00112  -0.00014  -0.02846  -0.00618   0.00071   0.01865 -23.93143   0.00428   0.01611 ...
   0.00924  -0.01112  -0.00100   0.00143   0.00180   0.00508  -0.03274  -0.03587  -0.02514   0.00428 -23.94422   0.01851 ...
  -0.01263   0.02056  -0.00014  -0.00513   0.00161   0.00071   0.06970  -0.02883   0.00732   0.01611   0.01851 -23.98352 ...
   ...  only 12  components have been written...
 Atom #  8
  18.33578 -75.11599  -0.00839  -0.00969   0.00137   0.11322   0.13163  -0.01313   0.00223   0.01565  -0.00802  -0.01289 ...
 -75.11599 338.47389   0.03435   0.03992  -0.00410  -0.43658  -0.52755   0.03762  -0.00200   0.01827  -0.00791  -0.00946 ...
  -0.00839   0.03435   1.15160  -0.00230   0.00015 -17.77239   0.01146  -0.00336   0.00190  -0.00838   0.00498   0.00013 ...
  -0.00969   0.03992  -0.00230   1.15255   0.00126   0.01146 -17.77802  -0.00355   0.00013  -0.01094  -0.00937   0.00135 ...
   0.00137  -0.00410   0.00015   0.00126   1.14972  -0.00336  -0.00355 -17.76545  -0.00958   0.00013  -0.00112  -0.00795 ...
   0.11322  -0.43658 -17.77239   0.01146  -0.00336 313.01279  -0.11791   0.04761  -0.01028   0.05913  -0.03312  -0.00063 ...
   0.13163  -0.52755   0.01146 -17.77802  -0.00355  -0.11791 313.08471   0.02829  -0.00063   0.07123   0.06465  -0.00879 ...
  -0.01313   0.03762  -0.00336  -0.00355 -17.76545   0.04761   0.02829 312.95710   0.06338  -0.00063   0.00575   0.05578 ...
   0.00223  -0.00200   0.00190   0.00013  -0.00958  -0.01028  -0.00063   0.06338 -26.95845   0.06833   0.00144  -0.10662 ...
   0.01565   0.01827  -0.00838  -0.01094   0.00013   0.05913   0.07123  -0.00063   0.06833 -26.82156  -0.06799  -0.01505 ...
  -0.00802  -0.00791   0.00498  -0.00937  -0.00112  -0.03312   0.06465   0.00575   0.00144  -0.06799 -26.77415   0.04772 ...
  -0.01289  -0.00946   0.00013   0.00135  -0.00795  -0.00063  -0.00879   0.05578  -0.10662  -0.01505   0.04772 -26.90452 ...
   ...  only 12  components have been written...

 Augmentation waves occupancies Rhoij:
 Atom #  1
   1.03615  -0.25060   0.00049  -0.01468   0.08052   0.00085   0.00298  -0.00468   0.00767   0.01270  -0.01715  -0.01895 ...
  -0.25060   0.07141   0.02361   0.03806  -0.04701   0.00013  -0.00077   0.00160   0.00339   0.00648  -0.00440  -0.01429 ...
   0.00049   0.02361   0.61563   0.21488  -0.14287   0.01281   0.00710  -0.00320   0.01422   0.00820  -0.01046   0.04147 ...
  -0.01468   0.03806   0.21488   0.69428  -0.33030   0.00648   0.01433  -0.00551   0.01124  -0.01333  -0.00202  -0.00576 ...
   0.08052  -0.04701  -0.14287  -0.33030   0.82110  -0.00455  -0.00877   0.01554  -0.01679   0.01620  -0.01857   0.00848 ...
   0.00085   0.00013   0.01281   0.00648  -0.00455   0.00074   0.00032  -0.00016  -0.00202   0.00263  -0.00129   0.00078 ...
   0.00298  -0.00077   0.00710   0.01433  -0.00877   0.00032   0.00096  -0.00038   0.00096   0.00161   0.00068  -0.00436 ...
  -0.00468   0.00160  -0.00320  -0.00551   0.01554  -0.00016  -0.00038   0.00109   0.00150   0.00105  -0.00092   0.00443 ...
   0.00767   0.00339   0.01422   0.01124  -0.01679  -0.00202   0.00096   0.00150   1.54257  -0.00706   0.00168   0.01504 ...
   0.01270   0.00648   0.00820  -0.01333   0.01620   0.00263   0.00161   0.00105  -0.00706   1.53117   0.01477  -0.02599 ...
  -0.01715  -0.00440  -0.01046  -0.00202  -0.01857  -0.00129   0.00068  -0.00092   0.00168   0.01477   1.56187   0.02757 ...
  -0.01895  -0.01429   0.04147  -0.00576   0.00848   0.00078  -0.00436   0.00443   0.01504  -0.02599   0.02757   1.45664 ...
   ...  only 12  components have been written...
 Atom #  8
   0.70500  -0.25822  -0.01660  -0.07170   0.00113   0.00237   0.00270  -0.00054  -0.00264  -0.00734   0.05308   0.02461 ...
  -0.25822   0.11981   0.03357   0.03667   0.01078  -0.00197  -0.00218  -0.00011  -0.00381  -0.01815   0.01836   0.00920 ...
  -0.01660   0.03357   0.86795  -0.03737  -0.04293   0.00437  -0.00216  -0.00056   0.00544  -0.02303  -0.00528   0.00306 ...
  -0.07170   0.03667  -0.03737   1.06514   0.20601   0.00319   0.00307   0.00588  -0.00121  -0.03462  -0.00518   0.00063 ...
   0.00113   0.01078  -0.04293   0.20601   0.36771  -0.00075   0.00034  -0.00258  -0.03033   0.01438  -0.01987  -0.00620 ...
   0.00237  -0.00197   0.00437   0.00319  -0.00075   0.00130   0.00004   0.00019  -0.00037   0.00078  -0.00231  -0.00097 ...
   0.00270  -0.00218  -0.00216   0.00307   0.00034   0.00004   0.00121   0.00019  -0.00002   0.00459   0.00069  -0.00018 ...
  -0.00054  -0.00011  -0.00056   0.00588  -0.00258   0.00019   0.00019   0.00074   0.00218  -0.00057   0.00032   0.00097 ...
  -0.00264  -0.00381   0.00544  -0.00121  -0.03033  -0.00037  -0.00002   0.00218   1.57426  -0.00419  -0.00149  -0.00483 ...
  -0.00734  -0.01815  -0.02303  -0.03462   0.01438   0.00078   0.00459  -0.00057  -0.00419   1.55024   0.00006   0.00450 ...
   0.05308   0.01836  -0.00528  -0.00518  -0.01987  -0.00231   0.00069   0.00032  -0.00149   0.00006   1.60067   0.00115 ...
   0.02461   0.00920   0.00306   0.00063  -0.00620  -0.00097  -0.00018   0.00097  -0.00483   0.00450   0.00115   1.57579 ...
   ...  only 12  components have been written...



---OUTPUT-----------------------------------------------------------------------

 Cartesian coordinates (xcart) [bohr]
  4.81247909485023E+00  3.04271448194063E+00  1.28109941485015E+00
  1.08956847223230E+00  2.99255696483747E+00  4.96292837146986E+00
  8.19045133674501E-01  1.46215118175824E+01  1.23387821978510E+00
  8.59688751427898E-01  1.46907922419581E+01  8.77477609486971E+00
  4.82558637743307E+00  1.06592734338041E+01  1.33473219374504E+00
  4.78841726531808E+00  6.91394388551844E+00  5.13676117208483E+00
  9.29138095549355E-01  6.90794212723626E+00  1.02217446016575E+00
  1.14306039601218E+00  1.10640126434462E+01  1.28961680039545E+01
 Reduced coordinates (xred)
  3.06410231430678E-01  1.93729433461138E-01  8.15675165446423E-02
  6.93727538668219E-02  1.90535907604576E-01  3.15989327102373E-01
  5.21485504695340E-02  9.30950707855748E-01  7.85609461215521E-02
  5.47363269723608E-02  9.35361787976449E-01  5.58689424097142E-01
  3.07244771261497E-01  6.78675247281552E-01  8.49823120937883E-02
  3.04878216307022E-01  4.40210358176394E-01  3.27057250228246E-01
  5.91581622023020E-02  4.39828226616341E-01  6.50817814953361E-02
  7.27785811799424E-02  7.04444966474352E-01  8.21098179291638E-01
 Cartesian forces (fcart) [Ha/bohr]; max,rms= 5.03892E+03 1.16500E+03 (free atoms)
 -1.48556349686286E+02 -2.12958278908150E+02 -5.99998058911406E+02
 -1.48239295970916E+02  5.01646577264962E+02  5.03892314565357E+03
 -1.48524675065889E+02 -2.12922023048246E+02 -1.55915209776733E+03
  1.03989909646794E+03  8.96891943344809E+02 -3.95474459520814E+02
 -1.49222534473837E+02 -2.13282802858391E+02 -8.15709376832803E+02
 -1.48561748998369E+02 -2.13280689036746E+02 -6.00266979361903E+02
 -1.48201671737521E+02 -2.12877458240856E+02 -6.00243643150604E+02
 -1.48592820535126E+02 -3.33217268517381E+02 -4.68078530108714E+02
 Reduced forces (fred)
 -1.45369989793864E+00 -3.26808365156257E-01  9.95181924422534E-01
 -6.43334555152699E+00 -1.12239106794200E+04 -8.85639012569731E+04
 -1.95118148588758E+00 -8.96242900812275E-01  1.50654685161955E+04
 -1.86673349371963E+04 -1.74316343990701E+04 -3.21125247010422E+03
  9.00939837534392E+00  4.77016479732919E+00  3.38895714119789E+03
 -1.36889830235774E+00  4.73696511457910E+00  5.21884651993370E+00
 -7.02427176123962E+00 -1.59617776567106E+00  4.85232798527527E+00
 -8.80888746049776E-01  1.88846088243743E+03 -2.07093293745065E+03
 Cartesian velocities (vel) [bohr*Ha/hbar]; max,rms= 4.70339E-04 1.62666E-04 (free atoms)
 -3.49747511986380E-05 -3.79342810572000E-05 -2.10865084321923E-06
  6.21516403317172E-05  2.74687921055581E-05  9.64390511418482E-05
  1.69222607549213E-04  7.43222451851053E-05 -1.49886781638190E-05
 -7.35818820383585E-05  1.90391153752282E-04 -3.37553173068704E-05
  3.23119214786181E-05 -3.74898073326898E-04 -3.80908297840455E-05
 -7.83869298923638E-05 -3.49118695883391E-04 -1.77314511084754E-04
 -3.66396612315236E-05  4.70338865197666E-04  7.57100606722027E-05
 -4.01029449986647E-05 -5.70005973122555E-07  9.41088753686571E-05
 Kinetic energy of ions (ekin) [Ha]=  1.14005355110227E-01
 Total energy (etotal) [Ha]= -2.48566789958207E+02

 Difference of energy with previous step (new-old):
           Absolute (Ha)= 1.15457E-01
           Relative     = 4.64383E-04
================================================================================

 ----iterations are completed or convergence reached----

 Mean square residual over all n,k,spin=   1.5333E-06; max=  7.2879E-05
   0.5000  0.5000  0.5000    1  7.28791E-05 kpt; spin; max resid(k); each band:
  8.76E-07 1.71E-06 2.15E-06 2.03E-06 1.48E-06 7.28E-07 1.30E-06 5.91E-07
  2.99E-07 1.82E-06 1.55E-06 2.90E-06 8.79E-06 2.07E-06 5.77E-06 4.66E-06
  2.24E-06 1.64E-06 2.95E-06 3.17E-06 3.60E-06 2.39E-06 3.14E-06 1.89E-06
  3.91E-06 4.17E-06 2.10E-06 3.59E-06 5.22E-06 4.97E-06 2.13E-06 2.91E-06
  7.84E-06 3.70E-06 3.82E-06 1.30E-06 4.03E-06 5.09E-06 5.91E-06 2.30E-06
  4.64E-06 4.02E-06 6.00E-07 1.02E-06 1.73E-06 9.75E-07 4.84E-06 8.92E-07
  3.63E-07 3.62E-07 6.04E-07 4.68E-07 4.50E-07 1.88E-07 5.45E-07 6.88E-07
  3.88E-07 2.71E-07 3.21E-07 1.03E-07 3.90E-07 2.79E-07 3.99E-07 3.57E-07
  1.09E-06 3.84E-07 3.29E-07 3.89E-07 3.92E-07 8.04E-08 3.13E-07 2.33E-08
  2.91E-07 1.31E-07 1.31E-07 8.06E-08 4.34E-07 2.68E-07 1.44E-07 4.33E-08
  1.95E-07 2.05E-08 5.83E-08 8.34E-08 1.12E-07 5.91E-08 1.06E-07 7.42E-08
  9.87E-08 6.88E-08 9.90E-08 1.13E-07 1.32E-07 9.81E-08 1.39E-07 1.33E-07
  9.22E-08 1.72E-07 1.36E-07 2.10E-07 1.60E-07 1.44E-07 9.64E-08 2.34E-07
  1.66E-07 1.69E-07 1.30E-07 1.30E-07 1.59E-07 1.22E-07 2.28E-07 1.39E-07
  2.11E-07 1.26E-07 1.31E-07 1.63E-07 1.74E-07 9.47E-08 1.59E-07 1.90E-07
  1.76E-07 2.89E-07 2.46E-07 2.06E-07 2.53E-07 2.70E-07 1.88E-07 2.33E-07
  1.58E-07 2.72E-07 2.23E-07 2.79E-07 2.32E-07 2.75E-07 2.44E-07 1.97E-07
  2.57E-07 1.81E-07 1.74E-07 3.76E-07 1.56E-07 1.97E-07 1.60E-07 4.10E-07
  1.91E-07 3.33E-07 2.02E-07 1.23E-07 1.64E-07 1.92E-07 1.08E-07 1.05E-07
  1.77E-07 1.68E-07 1.45E-07 1.31E-07 1.58E-07 1.99E-07 1.46E-07 1.20E-07
  2.13E-07 1.20E-07 2.07E-07 1.40E-07 3.27E-07 2.75E-07 2.01E-07 2.64E-07
  2.01E-07 2.97E-07 1.97E-07 2.33E-07 3.93E-07 1.74E-07 2.58E-07 1.85E-07
  1.48E-07 3.29E-07 2.32E-07 3.83E-07 2.68E-07 4.06E-07 4.11E-07 2.95E-07
  3.64E-07 4.70E-07 3.04E-07 6.37E-07 6.21E-07 5.83E-07 8.45E-07 1.38E-06
  1.41E-06 2.75E-06 2.19E-06 1.12E-05 9.46E-06 1.34E-05 1.62E-05 7.29E-05
 reduced coordinates (array xred) for    8 atoms
       0.306410231431      0.193729433461      0.081567516545
       0.069372753867      0.190535907605      0.315989327102
       0.052148550470      0.930950707856      0.078560946122
       0.054736326972      0.935361787976      0.558689424097
       0.307244771261      0.678675247282      0.084982312094
       0.304878216307      0.440210358176      0.327057250228
       0.059158162202      0.439828226616      0.065081781495
       0.072778581180      0.704444966474      0.821098179292
 rms dE/dt=  1.9234E+04; max dE/dt=  1.5065E+04; dE/dt below (all hartree)
    1      -1.453699897939     -0.326808365156      0.995181924423
    2      -6.433345551527 -11223.910679420045 -88563.901256973069
    3      -1.951181485888     -0.896242900812  15065.468516195500
    4  -18667.334937196250 -17431.634399070132  -3211.252470104217
    5       9.009398375344      4.770164797329   3388.957141197893
    6      -1.368898302358      4.736965114579      5.218846519934
    7      -7.024271761240     -1.596177765671      4.852327985275
    8      -0.880888746050   1888.460882437428  -2070.932937450647

 cartesian coordinates (angstrom) at end:
    1      2.54665425381057     1.61013515608971     0.67792861227669
    2      0.57657480270356     1.58359294119925     2.62626858204654
    3      0.43342001754710     7.73737080899394     0.65294023208588
    4      0.45492769373684     7.77403243057502     4.64341151988541
    5      2.55359032901996     5.64064456129797     0.70630985650121
    6      2.53392128202518     3.65870152568655     2.71825693823735
    7      0.49167870379744     3.65552553199215     0.54091142752250
    8      0.60488150961150     5.85482332646331     6.82435818584029

 cartesian forces (hartree/bohr) at end:
    1   -148.55634968628553  -212.95827890815002  -599.99805891140568
    2   -148.23929597091634   501.64657726496159  5038.92314565356992
    3   -148.52467506588891  -212.92202304824579 -1559.15209776732581
    4   1039.89909646794308   896.89194334480931  -395.47445952081364
    5   -149.22253447383693  -213.28280285839105  -815.70937683280329
    6   -148.56174899836887  -213.28068903674645  -600.26697936190305
    7   -148.20167173752066  -212.87745824085633  -600.24364315060427
    8   -148.59282053512601  -333.21726851738117  -468.07853010871440
 frms,max,avg= 1.1649955E+03 5.0389231E+03   1.486E+02  2.130E+02  5.999E+02 h/b

 cartesian forces (eV/Angstrom) at end:
    1      -7639.07400117439192    -10950.75407532228382    -30853.13810055440990
    2      -7622.77044498734813     25795.70199628204136    259111.82441656111041
    3      -7637.44522684276671    -10948.88972420319988    -80174.81769768099184
    4      53473.75705211184686     46120.03418727392273    -20336.11264839015348
    5      -7673.33059741755824    -10967.44176639896978    -41945.45912198656879
    6      -7639.35164494153560    -10967.33306932878259    -30866.96654495356779
    7      -7620.83572928011563    -10946.59810986147022    -30865.76654882149160
    8      -7640.94940746814063    -17134.71943844125053    -24069.56375417392337
 frms,max,avg= 5.9906471E+04 2.5911182E+05   7.644E+03  1.095E+04  3.085E+04 e/A
 length scales= 15.706000000000 15.706000000000 15.706000000000 bohr
              =  8.311257238115  8.311257238115  8.311257238115 angstroms
 prteigrs : about to open file t41_MPI4o_EIG
 Fermi (or HOMO) energy (hartree) =  -0.30213   Average Vxc (hartree)=  -0.21411
 Eigenvalues (hartree) for nkpt=   1  k points:
 kpt#   1, nband=200, wtk=  1.00000, kpt=  0.5000  0.5000  0.5000 (reduced coord)
  -0.61752  -0.60116  -0.58341  -0.56242  -0.55205  -0.54548  -0.53660  -0.53326
  -0.51096  -0.50325  -0.49199  -0.48707  -0.46627  -0.46363  -0.45929  -0.45424
  -0.44063  -0.43744  -0.43640  -0.42577  -0.41681  -0.41559  -0.40958  -0.40668
  -0.40441  -0.40047  -0.39102  -0.38653  -0.38229  -0.37569  -0.37044  -0.36084
  -0.35924  -0.35734  -0.35361  -0.34711  -0.34350  -0.33462  -0.33004  -0.32789
  -0.32463  -0.32288  -0.31197  -0.30697  -0.30148  -0.29885  -0.27863  -0.26860
  -0.17898  -0.15642  -0.14139  -0.11096  -0.10258  -0.09293  -0.08044  -0.06557
  -0.04799  -0.00020   0.01027   0.02927   0.03588   0.05642   0.08250   0.09525
   0.09870   0.10944   0.11800   0.13929   0.15653   0.18036   0.18700   0.19168
   0.20582   0.22026   0.23162   0.23411   0.25497   0.27970   0.29020   0.29604
   0.29889   0.30767   0.31853   0.32748   0.33218   0.33524   0.34106   0.34546
   0.35116   0.35531   0.36140   0.37242   0.38654   0.39588   0.40071   0.40574
   0.41789   0.42775   0.43843   0.44101   0.44234   0.45973   0.46224   0.46720
   0.47196   0.47590   0.48041   0.48378   0.48563   0.48862   0.49348   0.50362
   0.51230   0.52310   0.53013   0.53192   0.53581   0.53971   0.54643   0.54765
   0.55535   0.56659   0.56823   0.57194   0.57673   0.58446   0.58815   0.59199
   0.59866   0.60014   0.60584   0.60781   0.61056   0.61346   0.61887   0.62230
   0.62901   0.63141   0.63793   0.64384   0.64572   0.64955   0.65462   0.65673
   0.66003   0.66552   0.66934   0.67382   0.67447   0.67677   0.67941   0.68807
   0.69436   0.69596   0.69802   0.70624   0.71273   0.71374   0.71909   0.72069
   0.72189   0.73061   0.73251   0.74169   0.74337   0.75094   0.75292   0.75986
   0.76340   0.76866   0.77270   0.77415   0.77916   0.78439   0.78501   0.78952
   0.79300   0.79853   0.80123   0.80355   0.80579   0.81306   0.81970   0.82169
   0.82635   0.82777   0.82974   0.83307   0.83966   0.84367   0.84906   0.85495
   0.85863   0.86051   0.86381   0.87134   0.87753   0.88210   0.88458   0.88901
      occupation numbers for kpt#   1
   2.00000   2.00000   2.00000   2.00000   2.00000   2.00000   2.00000   2.00000
   2.00000   2.00000   2.00000   2.00000   2.00000   2.00000   2.00000   2.00000
   2.00000   2.00000   2.00000   2.00000   1.99999   1.99999   1.99998   1.99997
   1.99996   1.99994   1.99983   1.99972   1.99957   1.99913   1.99849   1.99586
   1.99511   1.99403   1.99117   1.98258   1.97461   1.93665   1.89929   1.87536
   1.82869   1.79754   1.47598   1.24951   0.96552   0.82909   0.15549   0.05696
   0.00000   0.00000   0.00000   0.00000   0.00000   0.00000   0.00000   0.00000
   0.00000   0.00000   0.00000   0.00000   0.00000   0.00000   0.00000   0.00000
   0.00000   0.00000   0.00000   0.00000   0.00000   0.00000   0.00000   0.00000
   0.00000   0.00000   0.00000   0.00000   0.00000   0.00000   0.00000   0.00000
   0.00000   0.00000   0.00000   0.00000   0.00000   0.00000   0.00000   0.00000
   0.00000   0.00000   0.00000   0.00000   0.00000   0.00000   0.00000   0.00000
   0.00000   0.00000   0.00000   0.00000   0.00000   0.00000   0.00000   0.00000
   0.00000   0.00000   0.00000   0.00000   0.00000   0.00000   0.00000   0.00000
   0.00000   0.00000   0.00000   0.00000   0.00000   0.00000   0.00000   0.00000
   0.00000   0.00000   0.00000   0.00000   0.00000   0.00000   0.00000   0.00000
   0.00000   0.00000   0.00000   0.00000   0.00000   0.00000   0.00000   0.00000
   0.00000   0.00000   0.00000   0.00000   0.00000   0.00000   0.00000   0.00000
   0.00000   0.00000   0.00000   0.00000   0.00000   0.00000   0.00000   0.00000
   0.00000   0.00000   0.00000   0.00000   0.00000   0.00000   0.00000   0.00000
   0.00000   0.00000   0.00000   0.00000   0.00000   0.00000   0.00000   0.00000
   0.00000   0.00000   0.00000   0.00000   0.00000   0.00000   0.00000   0.00000
   0.00000   0.00000   0.00000   0.00000   0.00000   0.00000   0.00000   0.00000
   0.00000   0.00000   0.00000   0.00000   0.00000   0.00000   0.00000   0.00000
   0.00000   0.00000   0.00000   0.00000   0.00000   0.00000   0.00000   0.00000
 Fermi (or HOMO) energy (eV) =  -8.22142   Average Vxc (eV)=  -5.82625
 Eigenvalues (   eV  ) for nkpt=   1  k points:
 kpt#   1, nband=200, wtk=  1.00000, kpt=  0.5000  0.5000  0.5000 (reduced coord)
 -16.80345 -16.35839 -15.87551 -15.30426 -15.02208 -14.84333 -14.60162 -14.51077
 -13.90404 -13.69409 -13.38776 -13.25386 -12.68784 -12.61590 -12.49799 -12.36049
 -11.99012 -11.90346 -11.87516 -11.58572 -11.34185 -11.30878 -11.14529 -11.06632
 -11.00464 -10.89731 -10.64023 -10.51801 -10.40260 -10.22302 -10.08007  -9.81888
  -9.77536  -9.72373  -9.62214  -9.44546  -9.34698  -9.10558  -8.98072  -8.92233
  -8.83358  -8.78595  -8.48914  -8.35321  -8.20358  -8.13217  -7.58198  -7.30891
  -4.87025  -4.25636  -3.84738  -3.01935  -2.79134  -2.52862  -2.18894  -1.78435
  -1.30583  -0.00540   0.27933   0.79640   0.97645   1.53533   2.24485   2.59196
   2.68565   2.97801   3.21095   3.79026   4.25930   4.90775   5.08860   5.21578
   5.60059   5.99371   6.30281   6.37048   6.93807   7.61092   7.89676   8.05574
   8.13321   8.37215   8.66755   8.91112   9.03915   9.12248   9.28062   9.40031
   9.55559   9.66857   9.83417  10.13413  10.51828  10.77258  10.90380  11.04072
  11.37126  11.63964  11.93036  12.00053  12.03660  12.50983  12.57815  12.71305
  12.84278  12.94995  13.07268  13.16444  13.21462  13.29606  13.42826  13.70413
  13.94026  14.23428  14.42564  14.47426  14.58012  14.68633  14.86916  14.90236
  15.11176  15.41768  15.46233  15.56316  15.69352  15.90402  16.00438  16.10891
  16.29041  16.33068  16.48561  16.53939  16.61421  16.69310  16.84020  16.93354
  17.11629  17.18164  17.35885  17.51970  17.57082  17.67507  17.81321  17.87051
  17.96039  18.10967  18.21367  18.33546  18.35332  18.41589  18.48768  18.72322
  18.89460  18.93807  18.99411  19.21783  19.39440  19.42197  19.56757  19.61099
  19.64359  19.88079  19.93272  20.18246  20.22803  20.43425  20.48793  20.67682
  20.77304  20.91627  21.02628  21.06564  21.20198  21.34432  21.36130  21.48396
  21.57861  21.72917  21.80253  21.86579  21.92672  22.12441  22.30528  22.35926
  22.48611  22.52487  22.57838  22.66890  22.84825  22.95755  23.10415  23.26434
  23.36453  23.41564  23.50535  23.71026  23.87869  24.00324  24.07062  24.19119
 Total charge density [el/Bohr^3]
,     Maximum=    4.7081E-01  at reduced coord.    0.0700    0.7000    0.3200
,Next maximum=    4.7038E-01  at reduced coord.    0.0700    0.7100    0.3200
,     Minimum=    5.3835E-05  at reduced coord.    0.8000    0.4600    0.0400
,Next minimum=    5.8371E-05  at reduced coord.    0.5600    0.9300    0.3600
,  Integrated=    8.8000E+01

--------------------------------------------------------------------------------
 Components of total free energy (in Hartree) :

    Kinetic energy  =  5.53339625020925E+01
    Hartree energy  =  1.30678179184217E+02
    XC energy       = -3.68444265425096E+01
    Ewald energy    = -9.45324655624352E+01
    PspCore energy  =  6.93362037144230E+00
    Loc. psp. energy= -3.41191722384036E+02
    Spherical terms =  3.44329071282372E+01
    >>>>> Internal E= -2.45189945302991E+02

    -kT*entropy     = -8.39539717728770E-02
    >>>>>>>>> Etotal= -2.45273899274764E+02

 "Double-counting" decomposition of free energy:
    Band energy     = -3.76607319038855E+01
    Ewald energy    = -9.45324655624352E+01
    PspCore energy  =  6.93362037144230E+00
    Dble-C XC-energy= -1.22420369630155E+02
    Spherical terms = -8.02889261401241E-01
    >>>>> Internal E= -2.48482835986434E+02

    -kT*entropy     = -8.39539717728770E-02
    >>>> Etotal (DC)= -2.48566789958207E+02

  >Total energy in eV           = -6.67424222400458E+03
  >Total DC energy in eV        = -6.76384633640077E+03
--------------------------------------------------------------------------------
 rms coord change=  1.0357E-03   atom, delta coord (reduced):
     1       -0.000634542863     -0.000158083395      0.000341592351
     2        0.000593479046     -0.000003109715      0.000443887382
     3        0.001112866867      0.000233537617     -0.000122646258
     4       -0.000343539228      0.001059279145     -0.000164440573
     5       -0.000046647052     -0.002380119711     -0.000249759485
     6       -0.000559199531     -0.001990511145     -0.001320086035
     7        0.000024300988      0.003113219788      0.000426440287
     8       -0.000146718226      0.000125787416      0.000645012330

 Cartesian components of stress tensor (hartree/bohr^3)
  sigma(1 1)=  1.17391596E-02  sigma(3 2)= -1.32202465E-04
  sigma(2 2)=  1.18346251E-02  sigma(3 1)=  1.10444799E-04
  sigma(3 3)=  1.17852997E-02  sigma(2 1)= -6.26588677E-05

-Cartesian components of stress tensor (GPa)         [Pressure= -3.4677E+02 GPa]
- sigma(1 1)=  3.45377941E+02  sigma(3 2)= -3.88953014E+00
- sigma(2 2)=  3.48186632E+02  sigma(3 1)=  3.24939763E+00
- sigma(3 3)=  3.46735430E+02  sigma(2 1)= -1.84348722E+00

== END DATASET(S) ==============================================================
================================================================================
  
 -outvars: echo values of variables after computation  --------
            acell      1.5706000000E+01  1.5706000000E+01  1.5706000000E+01 Bohr
              amu      1.96966550E+02
             ecut      2.00000000E+00 Hartree
           enunit           2
           etotal     -2.4856678996E+02
            fcart     -1.4855634969E+02 -2.1295827891E+02 -5.9999805891E+02
                      -1.4823929597E+02  5.0164657726E+02  5.0389231457E+03
                      -1.4852467507E+02 -2.1292202305E+02 -1.5591520978E+03
                       1.0398990965E+03  8.9689194334E+02 -3.9547445952E+02
                      -1.4922253447E+02 -2.1328280286E+02 -8.1570937683E+02
                      -1.4856174900E+02 -2.1328068904E+02 -6.0026697936E+02
                      -1.4820167174E+02 -2.1287745824E+02 -6.0024364315E+02
                      -1.4859282054E+02 -3.3321726852E+02 -4.6807853011E+02
-          fftalg         401
      fft_opt_lob           2
           ionmov          12
           iprcch           6
           istwfk        1
              ixc           7
              kpt      5.00000000E-01  5.00000000E-01  5.00000000E-01
         kptrlatt        1    0    0      0    1    0      0    0    1
          kptrlen      1.57060000E+01
           mdtemp      3.00000000E+03  3.00000000E+03
P           mkmem           1
            natom           8
            nband         200
           nctime           1
            ngfft          20      20      20
          ngfftdg         100     100     100
             nkpt           1
           nloalg           4
-          npband           2
-           npfft           2
            nstep           2
             nsym           1
            ntime           2
           ntypat           1
              occ      2.000000  2.000000  2.000000  2.000000  2.000000  2.000000
                       2.000000  2.000000  2.000000  2.000000  2.000000  2.000000
                       2.000000  2.000000  2.000000  2.000000  1.999999  1.999999
                       1.999999  1.999996  1.999989  1.999987  1.999975  1.999967
                       1.999958  1.999936  1.999827  1.999723  1.999567  1.999132
                       1.998492  1.995864  1.995107  1.994029  1.991168  1.982582
                       1.974609  1.936646  1.899293  1.875364  1.828688  1.797540
                       1.475982  1.249510  0.965521  0.829090  0.155495  0.056963
                       0.000005  0.000000  0.000000  0.000000  0.000000  0.000000
                       0.000000  0.000000  0.000000  0.000000  0.000000  0.000000
                       0.000000  0.000000  0.000000  0.000000  0.000000  0.000000
                       0.000000  0.000000  0.000000  0.000000  0.000000  0.000000
                       0.000000  0.000000  0.000000  0.000000  0.000000  0.000000
                       0.000000  0.000000  0.000000  0.000000  0.000000  0.000000
                       0.000000  0.000000  0.000000  0.000000  0.000000  0.000000
                       0.000000  0.000000  0.000000  0.000000  0.000000  0.000000
                       0.000000  0.000000  0.000000  0.000000  0.000000  0.000000
                       0.000000  0.000000  0.000000  0.000000  0.000000  0.000000
                       0.000000  0.000000  0.000000  0.000000  0.000000  0.000000
                       0.000000  0.000000  0.000000  0.000000  0.000000  0.000000
                       0.000000  0.000000  0.000000  0.000000  0.000000  0.000000
                       0.000000  0.000000  0.000000  0.000000  0.000000  0.000000
                       0.000000  0.000000  0.000000  0.000000  0.000000  0.000000
                       0.000000  0.000000  0.000000  0.000000  0.000000  0.000000
                       0.000000  0.000000  0.000000  0.000000  0.000000  0.000000
                       0.000000  0.000000  0.000000  0.000000  0.000000  0.000000
                       0.000000  0.000000  0.000000  0.000000  0.000000  0.000000
                       0.000000  0.000000  0.000000  0.000000  0.000000  0.000000
                       0.000000  0.000000  0.000000  0.000000  0.000000  0.000000
                       0.000000  0.000000  0.000000  0.000000  0.000000  0.000000
                       0.000000  0.000000  0.000000  0.000000  0.000000  0.000000
                       0.000000  0.000000  0.000000  0.000000  0.000000  0.000000
                       0.000000  0.000000  0.000000  0.000000  0.000000  0.000000
                       0.000000  0.000000
           occopt           3
        paral_kgb           1
        pawecutdg      5.00000000E+01 Hartree
         pawmixdg           1
          pawovlp     -1.0000000000E+00
           shiftk      5.00000000E-01  5.00000000E-01  5.00000000E-01
          spgroup           1
           strten      1.1739159593E-02  1.1834625068E-02  1.1785299702E-02
                      -1.3220246467E-04  1.1044479921E-04 -6.2658867680E-05
           toldfe      1.00000000E-07 Hartree
           tsmear      9.50078000E-03 Hartree
            typat      1  1  1  1  1  1  1  1
           useylm           1
              vel     -3.4974751199E-05 -3.7934281057E-05 -2.1086508432E-06
                       6.2151640332E-05  2.7468792106E-05  9.6439051142E-05
                       1.6922260755E-04  7.4322245185E-05 -1.4988678164E-05
                      -7.3581882038E-05  1.9039115375E-04 -3.3755317307E-05
                       3.2311921479E-05 -3.7489807333E-04 -3.8090829784E-05
                      -7.8386929892E-05 -3.4911869588E-04 -1.7731451108E-04
                      -3.6639661232E-05  4.7033886520E-04  7.5710060672E-05
                      -4.0102944999E-05 -5.7000597312E-07  9.4108875369E-05
         wfoptalg           4
           xangst      2.5466542538E+00  1.6101351561E+00  6.7792861228E-01
                       5.7657480270E-01  1.5835929412E+00  2.6262685820E+00
                       4.3342001755E-01  7.7373708090E+00  6.5294023209E-01
                       4.5492769374E-01  7.7740324306E+00  4.6434115199E+00
                       2.5535903290E+00  5.6406445613E+00  7.0630985650E-01
                       2.5339212820E+00  3.6587015257E+00  2.7182569382E+00
                       4.9167870380E-01  3.6555255320E+00  5.4091142752E-01
                       6.0488150961E-01  5.8548233265E+00  6.8243581858E+00
            xcart      4.8124790949E+00  3.0427144819E+00  1.2810994149E+00
                       1.0895684722E+00  2.9925569648E+00  4.9629283715E+00
                       8.1904513367E-01  1.4621511818E+01  1.2338782198E+00
                       8.5968875143E-01  1.4690792242E+01  8.7747760949E+00
                       4.8255863774E+00  1.0659273434E+01  1.3347321937E+00
                       4.7884172653E+00  6.9139438855E+00  5.1367611721E+00
                       9.2913809555E-01  6.9079421272E+00  1.0221744602E+00
                       1.1430603960E+00  1.1064012643E+01  1.2896168004E+01
             xred      3.0641023143E-01  1.9372943346E-01  8.1567516545E-02
                       6.9372753867E-02  1.9053590760E-01  3.1598932710E-01
                       5.2148550470E-02  9.3095070786E-01  7.8560946122E-02
                       5.4736326972E-02  9.3536178798E-01  5.5868942410E-01
                       3.0724477126E-01  6.7867524728E-01  8.4982312094E-02
                       3.0487821631E-01  4.4021035818E-01  3.2705725023E-01
                       5.9158162202E-02  4.3982822662E-01  6.5081781495E-02
                       7.2778581180E-02  7.0444496647E-01  8.2109817929E-01
            znucl       79.00000

================================================================================


- Timing analysis has been suppressed with timopt=0



================================================================================

 Suggested references for the acknowledgment of ABINIT usage.

 The users of ABINIT have little formal obligations with respect to the ABINIT group
 (those specified in the GNU General Public License, http://www.gnu.org/copyleft/gpl.txt).
 However, it is common practice in the scientific literature,
 to acknowledge the efforts of people that have made the research possible.
 In this spirit, please find below suggested citations of work written by ABINIT developers,
 corresponding to implementations inside of ABINIT that you have used in the present run.
 Note also that it will be of great value to readers of publications presenting these results,
 to read papers enabling them to understand the theoretical formalism and details
 of the ABINIT implementation.
 For information on why they are suggested, see also http://www.abinit.org/about/?text=acknowledgments.

 [1] Large scale ab initio calculations based on three levels of parallelization
 F. Bottin, S. Leroux, A. Knyazev, G. Zerah, Comput. Mat. Science 42, 329, (2008).
 Comment : in case paral_kgb is non-zero. Strong suggestion to cite this paper in your publications.
 This paper is also available at http://www.arxiv.org/abs/0707.3405

 [2] Implementation of the Projector Augmented-Wave Method in the ABINIT code.
 M. Torrent, F. Jollet, F. Bottin, G. Zerah, and X. Gonze Comput. Mat. Science 42, 337, (2008).
 Comment : PAW calculations. Strong suggestion to cite this paper.

 [3] ABINIT : First-principles approach of materials and nanosystem properties.
 X. Gonze, B. Amadon, P.-M. Anglade, J.-M. Beuken, F. Bottin, P. Boulanger, F. Bruneval,
 D. Caliste, R. Caracas, M. Cote, T. Deutsch, L. Genovese, Ph. Ghosez, M. Giantomassi
 S. Goedecker, D.R. Hamann, P. Hermet, F. Jollet, G. Jomard, S. Leroux, M. Mancini, S. Mazevet,
 M.J.T. Oliveira, G. Onida, Y. Pouillon, T. Rangel, G.-M. Rignanese, D. Sangalli, R. Shaltaf,
 M. Torrent, M.J. Verstraete, G. Zerah, J.W. Zwanziger
 Computer Phys. Comm. 180, 2582-2615 (2009).
 Comment : the third generic paper describing the ABINIT project.
 Note that a version of this paper, that is not formatted for Computer Phys. Comm. 
 is available at http://www.abinit.org/about/ABINIT_CPC_v10.pdf .
 The licence allows the authors to put it on the Web.

 [4] A brief introduction to the ABINIT software package.
 X. Gonze, G.-M. Rignanese, M. Verstraete, J.-M. Beuken, Y. Pouillon, R. Caracas, F. Jollet,
 M. Torrent, G. Zerah, M. Mikami, Ph. Ghosez, M. Veithen, J.-Y. Raty, V. Olevano, F. Bruneval,
 L. Reining, R. Godby, G. Onida, D.R. Hamann, and D.C. Allan.
 Z. Kristallogr. 220, 558-562 (2005).
 Comment : the second generic paper describing the ABINIT project. Note that this paper
 should be cited especially if you are using the GW part of ABINIT, as several authors
 of this part are not in the list of authors of the first or third paper.
 The .pdf of the latter paper is available at http://www.abinit.org/about/zfk_0505-06_558-562.pdf.
 Note that it should not redistributed (Copyright by Oldenburg Wissenshaftverlag,
 the licence allows the authors to put it on the Web).


 And optionally :

 [5] First-principles computation of material properties : the ABINIT software project. 
 X. Gonze, J.-M. Beuken, R. Caracas, F. Detraux, M. Fuchs, G.-M. Rignanese, L. Sindic,
 M. Verstraete, G. Zerah, F. Jollet, M. Torrent, A. Roy, M. Mikami, Ph. Ghosez, J.-Y. Raty, D.C. Allan.
 Computational Materials Science 25, 478-492 (2002). http://dx.doi.org/10.1016/S0927-0256(02)00325-7
 Comment : the original paper describing the ABINIT project.
-
- Proc.   0 individual time (sec): cpu=          9.6  wall=          9.6

================================================================================

 Calculation completed.
.Delivered    2 WARNINGs and   0 COMMENTs to log file.
+Overall time at end (sec) : cpu=         38.4  wall=         38.5
