
.Version 7.9.3 of ABINIT 
.(MPI version, prepared for a x86_64_linux_gnu4.7 computer) 

.Copyright (C) 1998-2014 ABINIT group . 
 ABINIT comes with ABSOLUTELY NO WARRANTY.
 It is free software, and you are welcome to redistribute it
 under certain conditions (GNU General Public License,
 see ~abinit/COPYING or http://www.gnu.org/copyleft/gpl.txt).

 ABINIT is a project of the Universite Catholique de Louvain,
 Corning Inc. and other collaborators, see ~abinit/doc/developers/contributors.txt .
 Please read ~abinit/doc/users/acknowledgments.html for suggested
 acknowledgments of the ABINIT effort.
 For more information, see http://www.abinit.org .

.Starting date : Sat 30 Aug 2014.
- ( at 10h09 )
  
- input  file    -> t71.in
- output file    -> t71_MPI2.out
- root for input  files -> t71_MPI2i
- root for output files -> t71_MPI2o


 DATASET    1 : space group Fd -3 m (#227); Bravais cF (face-center cubic)
================================================================================
 Values of the parameters that define the memory need for DATASET  1.
   intxc =         0  ionmov =         0    iscf =         5 xclevel =         1
  lmnmax =         2   lnmax =         2   mband =         5  mffmem =         1
P  mgfft =        15   mkmem =         5 mpssoang=         3     mpw =       128
  mqgrid =      3001   natom =         2    nfft =      3375    nkpt =        10
  nloalg =         4  nspden =         1 nspinor =         1  nsppol =         1
    nsym =        48  n1xccc =      2501  ntypat =         1  occopt =         1
================================================================================
P This job should need less than                       1.416 Mbytes of memory.
  Rough estimation (10% accuracy) of disk space for files :
_ WF disk file :      0.100 Mbytes ; DEN or POT disk file :      0.028 Mbytes.
================================================================================


 DATASET    2 : space group Fd -3 m (#227); Bravais cF (face-center cubic)
================================================================================
 Values of the parameters that define the memory need for DATASET  2.
   intxc =         0  ionmov =         0    iscf =        -2 xclevel =         1
  lmnmax =         2   lnmax =         2   mband =        17  mffmem =         1
P  mgfft =        15   mkmem =        10 mpssoang=         3     mpw =       137
  mqgrid =      3001   natom =         2    nfft =      3375    nkpt =        19
  nloalg =         4  nspden =         1 nspinor =         1  nsppol =         1
    nsym =        48  n1xccc =      2501  ntypat =         1  occopt =         1
================================================================================
P This job should need less than                       1.526 Mbytes of memory.
  Rough estimation (10% accuracy) of disk space for files :
_ WF disk file :      0.677 Mbytes ; DEN or POT disk file :      0.028 Mbytes.
================================================================================


 DATASET    3 : space group Fd -3 m (#227); Bravais cF (face-center cubic)
================================================================================
 Values of the parameters that define the memory need for DATASET  3.
   intxc =         0  ionmov =         0    iscf =         5 xclevel =         1
  lmnmax =         2   lnmax =         2   mband =        12  mffmem =         1
P  mgfft =        15   mkmem =        10 mpssoang=         3     mpw =       127
  mqgrid =      3001   natom =         2    nfft =      3375    nkpt =        19
  nloalg =         4  nspden =         1 nspinor =         1  nsppol =         1
    nsym =        48  n1xccc =      2501  ntypat =         1  occopt =         1
================================================================================
P This job should need less than                       1.638 Mbytes of memory.
  Rough estimation (10% accuracy) of disk space for files :
_ WF disk file :      0.444 Mbytes ; DEN or POT disk file :      0.028 Mbytes.
================================================================================


 DATASET    4 : space group Fd -3 m (#227); Bravais cF (face-center cubic)
================================================================================
 Values of the parameters that define the memory need for DATASET  4.
   intxc =         0  ionmov =         0    iscf =         5 xclevel =         1
  lmnmax =         2   lnmax =         2   mband =        12  mffmem =         1
P  mgfft =        15   mkmem =        10 mpssoang=         3     mpw =       127
  mqgrid =      3001   natom =         2    nfft =      3375    nkpt =        19
  nloalg =         4  nspden =         1 nspinor =         1  nsppol =         1
    nsym =        48  n1xccc =      2501  ntypat =         1  occopt =         1
================================================================================
P This job should need less than                       1.638 Mbytes of memory.
  Rough estimation (10% accuracy) of disk space for files :
_ WF disk file :      0.444 Mbytes ; DEN or POT disk file :      0.028 Mbytes.
================================================================================

--------------------------------------------------------------------------------
------------- Echo of variables that govern the present computation ------------
--------------------------------------------------------------------------------
-
- outvars: echo of selected default values                                      
-   accesswff0 =  0 , fftalg0 =112 , wfoptalg0 =  0
-
- outvars: echo of global parameters not present in the input file              
-  max_nthreads =    0
-
 -outvars: echo values of preprocessed input variables --------
            acell      1.0261212902E+01  1.0261212902E+01  1.0261212902E+01 Bohr
              amu      2.80855000E+01
             awtr1          1
             awtr2          1
             awtr3          0
             awtr4          1
             bdgw4          4       5
           diemac      1.20000000E+01
             ecut1     4.50000000E+00 Hartree
             ecut2     4.50000000E+00 Hartree
             ecut3     4.49928585E+00 Hartree
             ecut4     4.49928585E+00 Hartree
          ecuteps1     0.00000000E+00 Hartree
          ecuteps2     0.00000000E+00 Hartree
          ecuteps3     2.99952390E+00 Hartree
          ecuteps4     0.00000000E+00 Hartree
         ecutsigx1     0.00000000E+00 Hartree
         ecutsigx2     0.00000000E+00 Hartree
         ecutsigx3     0.00000000E+00 Hartree
         ecutsigx4     1.49976195E+00 Hartree
          ecutwfn1     0.00000000E+00 Hartree
          ecutwfn2     0.00000000E+00 Hartree
          ecutwfn3     4.49928585E+00 Hartree
          ecutwfn4     4.49928585E+00 Hartree
-          fftalg         112
           getden1          0
           getden2         -1
           getden3          0
           getden4          0
           getkss1          0
           getkss2          0
           getkss3         -1
           getkss4         -2
           getscr1          0
           getscr2          0
           getscr3          0
           getscr4         -1
         icutcoul1          6
         icutcoul2          6
         icutcoul3          6
         icutcoul4          3
          inclvkb           0
             iscf1          5
             iscf2         -2
             iscf3          5
             iscf4          5
           istwfk2       0    0    0    0    0    0    0    0    0    0
                         0    0    0    1    0    0    0    1    1
           istwfk3       0    0    0    0    0    0    0    0    0    0
                         0    0    0    1    0    0    0    1    1
           istwfk4       0    0    0    0    0    0    0    0    0    0
                         0    0    0    1    0    0    0    1    1
           jdtset        1    2    3    4
              kpt1    -1.25000000E-01 -2.50000000E-01  0.00000000E+00
                      -1.25000000E-01  5.00000000E-01  0.00000000E+00
                      -2.50000000E-01 -3.75000000E-01  0.00000000E+00
                      -1.25000000E-01 -3.75000000E-01  1.25000000E-01
                      -1.25000000E-01  2.50000000E-01  0.00000000E+00
                      -2.50000000E-01  3.75000000E-01  0.00000000E+00
                      -3.75000000E-01  5.00000000E-01  0.00000000E+00
                      -2.50000000E-01  5.00000000E-01  1.25000000E-01
                      -1.25000000E-01  0.00000000E+00  0.00000000E+00
                      -3.75000000E-01  0.00000000E+00  0.00000000E+00
              kpt2    -1.25000000E-01 -1.25000000E-01  0.00000000E+00
                      -1.25000000E-01 -3.75000000E-01  0.00000000E+00
                      -2.50000000E-01 -2.50000000E-01  0.00000000E+00
                      -1.25000000E-01 -2.50000000E-01  1.25000000E-01
                      -1.25000000E-01  3.75000000E-01  0.00000000E+00
                      -2.50000000E-01  5.00000000E-01  0.00000000E+00
                      -1.25000000E-01  5.00000000E-01  1.25000000E-01
                      -3.75000000E-01 -3.75000000E-01  0.00000000E+00
                      -2.50000000E-01 -3.75000000E-01  1.25000000E-01
                      -1.25000000E-01 -3.75000000E-01  2.50000000E-01
                      -1.25000000E-01  1.25000000E-01  0.00000000E+00
                      -2.50000000E-01  2.50000000E-01  0.00000000E+00
                      -3.75000000E-01  3.75000000E-01  0.00000000E+00
                       5.00000000E-01  5.00000000E-01  0.00000000E+00
                      -3.75000000E-01  5.00000000E-01  1.25000000E-01
                      -2.50000000E-01  5.00000000E-01  2.50000000E-01
                      -2.50000000E-01  0.00000000E+00  0.00000000E+00
                       5.00000000E-01  0.00000000E+00  0.00000000E+00
                       0.00000000E+00  0.00000000E+00  0.00000000E+00
              kpt3    -1.25000000E-01 -1.25000000E-01  0.00000000E+00
                      -1.25000000E-01 -3.75000000E-01  0.00000000E+00
                      -2.50000000E-01 -2.50000000E-01  0.00000000E+00
                      -1.25000000E-01 -2.50000000E-01  1.25000000E-01
                      -1.25000000E-01  3.75000000E-01  0.00000000E+00
                      -2.50000000E-01  5.00000000E-01  0.00000000E+00
                      -1.25000000E-01  5.00000000E-01  1.25000000E-01
                      -3.75000000E-01 -3.75000000E-01  0.00000000E+00
                      -2.50000000E-01 -3.75000000E-01  1.25000000E-01
                      -1.25000000E-01 -3.75000000E-01  2.50000000E-01
                      -1.25000000E-01  1.25000000E-01  0.00000000E+00
                      -2.50000000E-01  2.50000000E-01  0.00000000E+00
                      -3.75000000E-01  3.75000000E-01  0.00000000E+00
                       5.00000000E-01  5.00000000E-01  0.00000000E+00
                      -3.75000000E-01  5.00000000E-01  1.25000000E-01
                      -2.50000000E-01  5.00000000E-01  2.50000000E-01
                      -2.50000000E-01  0.00000000E+00  0.00000000E+00
                       5.00000000E-01  0.00000000E+00  0.00000000E+00
                       0.00000000E+00  0.00000000E+00  0.00000000E+00
              kpt4    -1.25000000E-01 -1.25000000E-01  0.00000000E+00
                      -1.25000000E-01 -3.75000000E-01  0.00000000E+00
                      -2.50000000E-01 -2.50000000E-01  0.00000000E+00
                      -1.25000000E-01 -2.50000000E-01  1.25000000E-01
                      -1.25000000E-01  3.75000000E-01  0.00000000E+00
                      -2.50000000E-01  5.00000000E-01  0.00000000E+00
                      -1.25000000E-01  5.00000000E-01  1.25000000E-01
                      -3.75000000E-01 -3.75000000E-01  0.00000000E+00
                      -2.50000000E-01 -3.75000000E-01  1.25000000E-01
                      -1.25000000E-01 -3.75000000E-01  2.50000000E-01
                      -1.25000000E-01  1.25000000E-01  0.00000000E+00
                      -2.50000000E-01  2.50000000E-01  0.00000000E+00
                      -3.75000000E-01  3.75000000E-01  0.00000000E+00
                       5.00000000E-01  5.00000000E-01  0.00000000E+00
                      -3.75000000E-01  5.00000000E-01  1.25000000E-01
                      -2.50000000E-01  5.00000000E-01  2.50000000E-01
                      -2.50000000E-01  0.00000000E+00  0.00000000E+00
                       5.00000000E-01  0.00000000E+00  0.00000000E+00
                       0.00000000E+00  0.00000000E+00  0.00000000E+00
            kptgw4     0.00000000E+00  0.00000000E+00  0.00000000E+00
         kptrlatt        4   -4    4     -4    4    4     -4   -4    4
          kptrlen      4.10448516E+01
          kssform1          1
          kssform2          3
          kssform3          1
          kssform4          1
P           mkmem1          5
P           mkmem2         10
P           mkmem3         10
P           mkmem4         10
            natom           2
            nband1          5
            nband2         17
            nband3         12
            nband4         12
         nbandkss1          0
         nbandkss2         12
         nbandkss3          0
         nbandkss4          0
           nbdbuf1          0
           nbdbuf2          5
           nbdbuf3          0
           nbdbuf4          0
           ndtset           4
            ngfft          15      15      15
             nkpt1         10
             nkpt2         19
             nkpt3         19
             nkpt4         19
           nkptgw1          0
           nkptgw2          0
           nkptgw3          0
           nkptgw4          1
           npweps1          0
           npweps2          0
           npweps3         65
           npweps4          0
          npwsigx1          0
          npwsigx2          0
          npwsigx3          0
          npwsigx4         27
           npwwfn1          0
           npwwfn2          0
           npwwfn3        137
           npwwfn4        137
           nsheps1          0
           nsheps2          0
           nsheps3          7
           nsheps4          0
          nshsigx1          0
          nshsigx2          0
          nshsigx3          0
          nshsigx4          4
            nstep         100
             nsym          48
           ntypat           1
              occ1     2.000000  2.000000  2.000000  2.000000  0.000000
              occ3     2.000000  2.000000  2.000000  2.000000  0.000000  0.000000
                       0.000000  0.000000  0.000000  0.000000  0.000000  0.000000
              occ4     2.000000  2.000000  2.000000  2.000000  0.000000  0.000000
                       0.000000  0.000000  0.000000  0.000000  0.000000  0.000000
        optdriver1          0
        optdriver2          0
        optdriver3          3
        optdriver4          4
        optforces           1
           ppmfrq1     0.00000000E+00 Hartree
           ppmfrq2     0.00000000E+00 Hartree
           ppmfrq3     6.13713734E-01 Hartree
           ppmfrq4     0.00000000E+00 Hartree
            rprim      0.0000000000E+00  5.0000000000E-01  5.0000000000E-01
                       5.0000000000E-01  0.0000000000E+00  5.0000000000E-01
                       5.0000000000E-01  5.0000000000E-01  0.0000000000E+00
           shiftk1     5.00000000E-01  5.00000000E-01  5.00000000E-01
           shiftk2     0.00000000E+00  0.00000000E+00  0.00000000E+00
           shiftk3     0.00000000E+00  0.00000000E+00  0.00000000E+00
           shiftk4     0.00000000E+00  0.00000000E+00  0.00000000E+00
          spgroup         227
           symrel      1  0  0   0  1  0   0  0  1      -1  0  0   0 -1  0   0  0 -1
                       0 -1  1   0 -1  0   1 -1  0       0  1 -1   0  1  0  -1  1  0
                      -1  0  0  -1  0  1  -1  1  0       1  0  0   1  0 -1   1 -1  0
                       0  1 -1   1  0 -1   0  0 -1       0 -1  1  -1  0  1   0  0  1
                      -1  0  0  -1  1  0  -1  0  1       1  0  0   1 -1  0   1  0 -1
                       0 -1  1   1 -1  0   0 -1  0       0  1 -1  -1  1  0   0  1  0
                       1  0  0   0  0  1   0  1  0      -1  0  0   0  0 -1   0 -1  0
                       0  1 -1   0  0 -1   1  0 -1       0 -1  1   0  0  1  -1  0  1
                      -1  0  1  -1  1  0  -1  0  0       1  0 -1   1 -1  0   1  0  0
                       0 -1  0   1 -1  0   0 -1  1       0  1  0  -1  1  0   0  1 -1
                       1  0 -1   0  0 -1   0  1 -1      -1  0  1   0  0  1   0 -1  1
                       0  1  0   0  0  1   1  0  0       0 -1  0   0  0 -1  -1  0  0
                       1  0 -1   0  1 -1   0  0 -1      -1  0  1   0 -1  1   0  0  1
                       0 -1  0   0 -1  1   1 -1  0       0  1  0   0  1 -1  -1  1  0
                      -1  0  1  -1  0  0  -1  1  0       1  0 -1   1  0  0   1 -1  0
                       0  1  0   1  0  0   0  0  1       0 -1  0  -1  0  0   0  0 -1
                       0  0 -1   0  1 -1   1  0 -1       0  0  1   0 -1  1  -1  0  1
                       1 -1  0   0 -1  1   0 -1  0      -1  1  0   0  1 -1   0  1  0
                       0  0  1   1  0  0   0  1  0       0  0 -1  -1  0  0   0 -1  0
                      -1  1  0  -1  0  0  -1  0  1       1 -1  0   1  0  0   1  0 -1
                       0  0  1   0  1  0   1  0  0       0  0 -1   0 -1  0  -1  0  0
                       1 -1  0   0 -1  0   0 -1  1      -1  1  0   0  1  0   0  1 -1
                       0  0 -1   1  0 -1   0  1 -1       0  0  1  -1  0  1   0 -1  1
                      -1  1  0  -1  0  1  -1  0  0       1 -1  0   1  0 -1   1  0  0
            tnons      0.0000000  0.0000000  0.0000000     0.2500000  0.2500000  0.2500000
                       0.0000000  0.0000000  0.0000000     0.2500000  0.2500000  0.2500000
                       0.0000000  0.0000000  0.0000000     0.2500000  0.2500000  0.2500000
                       0.0000000  0.0000000  0.0000000     0.2500000  0.2500000  0.2500000
                       0.0000000  0.0000000  0.0000000     0.2500000  0.2500000  0.2500000
                       0.0000000  0.0000000  0.0000000     0.2500000  0.2500000  0.2500000
                       0.0000000  0.0000000  0.0000000     0.2500000  0.2500000  0.2500000
                       0.0000000  0.0000000  0.0000000     0.2500000  0.2500000  0.2500000
                       0.0000000  0.0000000  0.0000000     0.2500000  0.2500000  0.2500000
                       0.0000000  0.0000000  0.0000000     0.2500000  0.2500000  0.2500000
                       0.0000000  0.0000000  0.0000000     0.2500000  0.2500000  0.2500000
                       0.0000000  0.0000000  0.0000000     0.2500000  0.2500000  0.2500000
                       0.0000000  0.0000000  0.0000000     0.2500000  0.2500000  0.2500000
                       0.0000000  0.0000000  0.0000000     0.2500000  0.2500000  0.2500000
                       0.0000000  0.0000000  0.0000000     0.2500000  0.2500000  0.2500000
                       0.0000000  0.0000000  0.0000000     0.2500000  0.2500000  0.2500000
                       0.0000000  0.0000000  0.0000000     0.2500000  0.2500000  0.2500000
                       0.0000000  0.0000000  0.0000000     0.2500000  0.2500000  0.2500000
                       0.0000000  0.0000000  0.0000000     0.2500000  0.2500000  0.2500000
                       0.0000000  0.0000000  0.0000000     0.2500000  0.2500000  0.2500000
                       0.0000000  0.0000000  0.0000000     0.2500000  0.2500000  0.2500000
                       0.0000000  0.0000000  0.0000000     0.2500000  0.2500000  0.2500000
                       0.0000000  0.0000000  0.0000000     0.2500000  0.2500000  0.2500000
                       0.0000000  0.0000000  0.0000000     0.2500000  0.2500000  0.2500000
           tolwfr      1.00000000E-10
            typat      1  1
              wtk1       0.09375    0.09375    0.09375    0.18750    0.09375    0.09375
                         0.09375    0.18750    0.03125    0.03125
              wtk2       0.02344    0.09375    0.02344    0.09375    0.09375    0.09375
                         0.09375    0.02344    0.09375    0.09375    0.04688    0.04688
                         0.04688    0.01172    0.04688    0.02344    0.03125    0.01563
                         0.00391
              wtk3       0.02344    0.09375    0.02344    0.09375    0.09375    0.09375
                         0.09375    0.02344    0.09375    0.09375    0.04688    0.04688
                         0.04688    0.01172    0.04688    0.02344    0.03125    0.01563
                         0.00391
              wtk4       0.02344    0.09375    0.02344    0.09375    0.09375    0.09375
                         0.09375    0.02344    0.09375    0.09375    0.04688    0.04688
                         0.04688    0.01172    0.04688    0.02344    0.03125    0.01563
                         0.00391
           xangst      0.0000000000E+00  0.0000000000E+00  0.0000000000E+00
                       1.3575000000E+00  1.3575000000E+00  1.3575000000E+00
            xcart      0.0000000000E+00  0.0000000000E+00  0.0000000000E+00
                       2.5653032254E+00  2.5653032254E+00  2.5653032254E+00
             xred      0.0000000000E+00  0.0000000000E+00  0.0000000000E+00
                       2.5000000000E-01  2.5000000000E-01  2.5000000000E-01
            znucl       14.00000

================================================================================

 chkinp: Checking input parameters for consistency, jdtset=   1.

 chkinp: Checking input parameters for consistency, jdtset=   2.

 chkinp: Checking input parameters for consistency, jdtset=   3.

 chkinp: Checking input parameters for consistency, jdtset=   4.

================================================================================
== DATASET  1 ==================================================================
-   nproc =    2

 Exchange-correlation functional for the present dataset will be:
  LDA: new Teter (4/93) with spin-polarized option - ixc=1
 Citation for XC functional:
  S. Goedecker, M. Teter, J. Huetter, PRB 54, 1703 (1996)

 Real(R)+Recip(G) space primitive vectors, cartesian coordinates (Bohr,Bohr^-1):
 R(1)=  0.0000000  5.1306065  5.1306065  G(1)= -0.0974544  0.0974544  0.0974544
 R(2)=  5.1306065  0.0000000  5.1306065  G(2)=  0.0974544 -0.0974544  0.0974544
 R(3)=  5.1306065  5.1306065  0.0000000  G(3)=  0.0974544  0.0974544 -0.0974544
 Unit cell volume ucvol=  2.7010716E+02 bohr^3
 Angles (23,13,12)=  6.00000000E+01  6.00000000E+01  6.00000000E+01 degrees

 getcut: wavevector=  0.0000  0.0000  0.0000  ngfft=  15  15  15
         ecut(hartree)=      4.500   => boxcut(ratio)=   2.03085

--- Pseudopotential description ------------------------------------------------
- pspini: atom type   1  psp file is /data/ABINIT/testf_gcc47/trunk_7.9.3-private/tests/Psps_for_tests/14si.pspnc
- pspatm: opening atomic psp file    /data/ABINIT/testf_gcc47/trunk_7.9.3-private/tests/Psps_for_tests/14si.pspnc
-  Troullier-Martins psp for element  Si        Thu Oct 27 17:31:21 EDT 1994
- 14.00000   4.00000    940714                znucl, zion, pspdat
    1    1    2    2      2001   0.00000      pspcod,pspxc,lmax,lloc,mmax,r2well
    0   5.907  14.692    1   2.0872718        l,e99.0,e99.9,nproj,rcpsp
   0.00000000   0.00000000   0.00000000   0.00000000     rms, ekb1, ekb2, epsatm
    1   2.617   4.181    1   2.0872718        l,e99.0,e99.9,nproj,rcpsp
   0.00000000   0.00000000   0.00000000   0.00000000     rms, ekb1, ekb2, epsatm
    2   0.000   0.000    0   2.0872718        l,e99.0,e99.9,nproj,rcpsp
   0.00000000   0.00000000   0.00000000   0.00000000     rms, ekb1, ekb2, epsatm
    1.80626423934776    0.22824404341771    1.17378968127746   rchrg,fchrg,qchrg
 pspatm: epsatm=    1.43386982
         --- l  ekb(1:nproj) -->
             0    3.287949
             1    1.849886
 pspatm: atomic psp has been read  and splines computed

   2.29419171E+01                                ecore*ucvol(ha*bohr**3)
--------------------------------------------------------------------------------

P newkpt: treating      5 bands with npw=     128 for ikpt=   1 by node    0
P newkpt: treating      5 bands with npw=     123 for ikpt=   2 by node    0
P newkpt: treating      5 bands with npw=     126 for ikpt=   3 by node    0
P newkpt: treating      5 bands with npw=     121 for ikpt=   4 by node    0
P newkpt: treating      5 bands with npw=     128 for ikpt=   5 by node    0
P newkpt: treating      5 bands with npw=     122 for ikpt=   6 by node    1
P newkpt: treating      5 bands with npw=     118 for ikpt=   7 by node    1
P newkpt: treating      5 bands with npw=     120 for ikpt=   8 by node    1
P newkpt: treating      5 bands with npw=     122 for ikpt=   9 by node    1
P newkpt: treating      5 bands with npw=     123 for ikpt=  10 by node    1

_setup2: Arith. and geom. avg. npw (full set) are     122.688     122.646

================================================================================

     iter   Etot(hartree)      deltaE(h)  residm     vres2    diffor    maxfor
 ETOT  1  -8.8427268200500    -8.843E+00 1.602E-03 2.156E+00 0.000E+00 0.000E+00
 ETOT  2  -8.8468666505642    -4.140E-03 1.827E-06 5.875E-02 0.000E+00 0.000E+00
 ETOT  3  -8.8469226911140    -5.604E-05 1.929E-06 1.575E-02 0.000E+00 0.000E+00
 ETOT  4  -8.8469341730833    -1.148E-05 1.452E-07 1.640E-03 2.706E-29 2.706E-29
 ETOT  5  -8.8469352969847    -1.124E-06 8.492E-08 1.899E-04 2.238E-29 2.527E-29
 ETOT  6  -8.8469354852530    -1.883E-07 3.521E-09 5.591E-06 3.142E-29 1.681E-29
 ETOT  7  -8.8469354905649    -5.312E-09 8.735E-10 1.397E-08 1.695E-29 1.409E-31
 ETOT  8  -8.8469354905652    -3.109E-13 8.264E-11 1.064E-08 1.538E-31 2.947E-31

 At SCF step    8   max residual=  8.26E-11 < tolwfr=  1.00E-10 =>converged.

 Cartesian components of stress tensor (hartree/bohr^3)
  sigma(1 1)=  2.05601284E-04  sigma(3 2)=  0.00000000E+00
  sigma(2 2)=  2.05601284E-04  sigma(3 1)=  0.00000000E+00
  sigma(3 3)=  2.05601284E-04  sigma(2 1)=  0.00000000E+00

================================================================================

 ----iterations are completed or convergence reached----

 Mean square residual over all n,k,spin=   1.6588E-11; max=  8.2640E-11
  -0.1250 -0.2500  0.0000    1  2.06995E-11 kpt; spin; max resid(k); each band:
  1.83E-11 1.69E-11 1.31E-11 2.07E-11 1.13E-11
  -0.1250  0.5000  0.0000    1  2.26156E-11 kpt; spin; max resid(k); each band:
  9.10E-12 2.11E-12 2.26E-11 6.79E-12 1.52E-11
  -0.2500 -0.3750  0.0000    1  3.22489E-11 kpt; spin; max resid(k); each band:
  7.84E-12 7.28E-12 3.22E-11 1.33E-11 5.49E-12
  -0.1250 -0.3750  0.1250    1  8.26397E-11 kpt; spin; max resid(k); each band:
  7.53E-12 1.64E-11 2.66E-11 2.74E-11 8.26E-11
  -0.1250  0.2500  0.0000    1  2.96055E-11 kpt; spin; max resid(k); each band:
  1.25E-11 1.65E-11 2.96E-11 3.56E-12 1.70E-11
  -0.2500  0.3750  0.0000    1  3.24947E-11 kpt; spin; max resid(k); each band:
  8.41E-12 1.22E-11 3.24E-11 9.74E-12 3.25E-11
  -0.3750  0.5000  0.0000    1  4.55856E-11 kpt; spin; max resid(k); each band:
  1.17E-11 8.24E-12 4.56E-11 1.10E-11 1.28E-11
  -0.2500  0.5000  0.1250    1  3.82295E-11 kpt; spin; max resid(k); each band:
  5.99E-12 7.42E-12 3.82E-11 2.57E-11 2.80E-12
  -0.1250  0.0000  0.0000    1  3.81601E-11 kpt; spin; max resid(k); each band:
  3.82E-11 1.24E-11 1.10E-11 1.10E-11 3.24E-11
  -0.3750  0.0000  0.0000    1  9.23485E-12 kpt; spin; max resid(k); each band:
  9.23E-12 2.50E-13 3.98E-12 3.98E-12 3.00E-13
 reduced coordinates (array xred) for    2 atoms
       0.000000000000      0.000000000000      0.000000000000
       0.250000000000      0.250000000000      0.250000000000
 rms dE/dt=  1.7210E-30; max dE/dt=  3.9443E-30; dE/dt below (all hartree)
    1      -0.000000000000      0.000000000000      0.000000000000
    2       0.000000000000      0.000000000000      0.000000000000

 cartesian coordinates (angstrom) at end:
    1      0.00000000000000     0.00000000000000     0.00000000000000
    2      1.35750000000000     1.35750000000000     1.35750000000000

 cartesian forces (hartree/bohr) at end:
    1     -0.00000000000000    -0.00000000000000     0.00000000000000
    2      0.00000000000000     0.00000000000000    -0.00000000000000
 frms,max,avg= 2.4612950E-31 2.9469877E-31   0.000E+00  0.000E+00  0.000E+00 h/b

 cartesian forces (eV/Angstrom) at end:
    1     -0.00000000000000    -0.00000000000000     0.00000000000000
    2      0.00000000000000     0.00000000000000    -0.00000000000000
 frms,max,avg= 1.2656487E-29 1.5154019E-29   0.000E+00  0.000E+00  0.000E+00 e/A
 length scales= 10.261212901569 10.261212901569 10.261212901569 bohr
              =  5.430000000000  5.430000000000  5.430000000000 angstroms
 prteigrs : about to open file t71_MPI2o_DS1_EIG
 Fermi (or HOMO) energy (hartree) =   0.20346   Average Vxc (hartree)=  -0.35293
 Eigenvalues (hartree) for nkpt=  10  k points:
 kpt#   1, nband=  5, wtk=  0.09375, kpt= -0.1250 -0.2500  0.0000 (reduced coord)
  -0.19595   0.09520   0.16424   0.16772   0.29195
 kpt#   2, nband=  5, wtk=  0.09375, kpt= -0.1250  0.5000  0.0000 (reduced coord)
  -0.13444  -0.03444   0.12919   0.15490   0.29639
 kpt#   3, nband=  5, wtk=  0.09375, kpt= -0.2500 -0.3750  0.0000 (reduced coord)
  -0.15788   0.03345   0.11381   0.13079   0.26317
 kpt#   4, nband=  5, wtk=  0.18750, kpt= -0.1250 -0.3750  0.1250 (reduced coord)
  -0.14149   0.00027   0.09006   0.14135   0.32054
 kpt#   5, nband=  5, wtk=  0.09375, kpt= -0.1250  0.2500  0.0000 (reduced coord)
  -0.17759   0.04367   0.12748   0.18470   0.31366
 kpt#   6, nband=  5, wtk=  0.09375, kpt= -0.2500  0.3750  0.0000 (reduced coord)
  -0.11576  -0.02876   0.06484   0.14280   0.28293
 kpt#   7, nband=  5, wtk=  0.09375, kpt= -0.3750  0.5000  0.0000 (reduced coord)
  -0.10213  -0.03468   0.08503   0.11305   0.24737
 kpt#   8, nband=  5, wtk=  0.18750, kpt= -0.2500  0.5000  0.1250 (reduced coord)
  -0.09526  -0.03832   0.06179   0.10274   0.30256
 kpt#   9, nband=  5, wtk=  0.03125, kpt= -0.1250  0.0000  0.0000 (reduced coord)
  -0.21491   0.15511   0.20346   0.20346   0.30464
 kpt#  10, nband=  5, wtk=  0.03125, kpt= -0.3750  0.0000  0.0000 (reduced coord)
  -0.16053  -0.00503   0.17290   0.17290   0.27777
 Total charge density [el/Bohr^3]
,     Maximum=    8.6379E-02  at reduced coord.    0.1333    0.1333    0.6000
,Next maximum=    8.6379E-02  at reduced coord.    0.1333    0.6000    0.1333
,     Minimum=    3.5511E-03  at reduced coord.    0.7333    0.7333    0.7333
,Next minimum=    3.5511E-03  at reduced coord.    0.8000    0.7333    0.7333
,  Integrated=    8.0000E+00

--------------------------------------------------------------------------------
 Components of total free energy (in Hartree) :

    Kinetic energy  =  2.95573829844745E+00
    Hartree energy  =  5.35442243021670E-01
    XC energy       = -3.52956720066875E+00
    Ewald energy    = -8.39947182979608E+00
    PspCore energy  =  8.49363517011973E-02
    Loc. psp. energy= -2.49655029091947E+00
    NL   psp  energy=  2.00253693764875E+00
    >>>>>>>>> Etotal= -8.84693549056523E+00

 Other information on the energy :
    Total energy(eV)= -2.40737357618428E+02 ; Band energy (Ha)=   2.2262659491E-01
--------------------------------------------------------------------------------

 Cartesian components of stress tensor (hartree/bohr^3)
  sigma(1 1)=  2.05601284E-04  sigma(3 2)=  0.00000000E+00
  sigma(2 2)=  2.05601284E-04  sigma(3 1)=  0.00000000E+00
  sigma(3 3)=  2.05601284E-04  sigma(2 1)=  0.00000000E+00

-Cartesian components of stress tensor (GPa)         [Pressure= -6.0490E+00 GPa]
- sigma(1 1)=  6.04899760E+00  sigma(3 2)=  0.00000000E+00
- sigma(2 2)=  6.04899760E+00  sigma(3 1)=  0.00000000E+00
- sigma(3 3)=  6.04899760E+00  sigma(2 1)=  0.00000000E+00

================================================================================
== DATASET  2 ==================================================================
-   nproc =    2

 mkfilename : getden/=0, take file _DEN from output of DATASET   1.

 Exchange-correlation functional for the present dataset will be:
  LDA: new Teter (4/93) with spin-polarized option - ixc=1
 Citation for XC functional:
  S. Goedecker, M. Teter, J. Huetter, PRB 54, 1703 (1996)

 Real(R)+Recip(G) space primitive vectors, cartesian coordinates (Bohr,Bohr^-1):
 R(1)=  0.0000000  5.1306065  5.1306065  G(1)= -0.0974544  0.0974544  0.0974544
 R(2)=  5.1306065  0.0000000  5.1306065  G(2)=  0.0974544 -0.0974544  0.0974544
 R(3)=  5.1306065  5.1306065  0.0000000  G(3)=  0.0974544  0.0974544 -0.0974544
 Unit cell volume ucvol=  2.7010716E+02 bohr^3
 Angles (23,13,12)=  6.00000000E+01  6.00000000E+01  6.00000000E+01 degrees

 getcut: wavevector=  0.0000  0.0000  0.0000  ngfft=  15  15  15
         ecut(hartree)=      4.500   => boxcut(ratio)=   2.03085
--------------------------------------------------------------------------------

P newkpt: treating     17 bands with npw=     125 for ikpt=   1 by node    0
P newkpt: treating     17 bands with npw=     126 for ikpt=   2 by node    0
P newkpt: treating     17 bands with npw=     125 for ikpt=   3 by node    0
P newkpt: treating     17 bands with npw=     127 for ikpt=   4 by node    0
P newkpt: treating     17 bands with npw=     124 for ikpt=   5 by node    0
P newkpt: treating     17 bands with npw=     121 for ikpt=   6 by node    0
P newkpt: treating     17 bands with npw=     122 for ikpt=   7 by node    0
P newkpt: treating     17 bands with npw=     121 for ikpt=   8 by node    0
P newkpt: treating     17 bands with npw=     124 for ikpt=   9 by node    0
P newkpt: treating     17 bands with npw=     121 for ikpt=  10 by node    0
P newkpt: treating     17 bands with npw=     123 for ikpt=  11 by node    1
P newkpt: treating     17 bands with npw=     125 for ikpt=  12 by node    1
P newkpt: treating     17 bands with npw=     116 for ikpt=  13 by node    1
P newkpt: treating     17 bands with npw=     116 for ikpt=  14 by node    1
P newkpt: treating     17 bands with npw=     120 for ikpt=  15 by node    1
P newkpt: treating     17 bands with npw=     116 for ikpt=  16 by node    1
P newkpt: treating     17 bands with npw=     126 for ikpt=  17 by node    1
P newkpt: treating     17 bands with npw=     120 for ikpt=  18 by node    1
P newkpt: treating     17 bands with npw=     137 for ikpt=  19 by node    1


================================================================================
 prteigrs : about to open file t71_MPI2o_DS2_EIG
 Non-SCF case, kpt    1 ( -0.12500 -0.12500  0.00000), residuals and eigenvalues=
  9.31E-11  4.93E-11  8.82E-11  7.34E-12  1.53E-11  1.96E-11  7.38E-12  1.56E-11
  2.78E-11  1.11E-11  2.50E-11  2.78E-11  1.46E-10  1.66E-11  2.91E-10  2.32E-06
  5.24E-05
 -2.1305E-01  1.6540E-01  1.8362E-01  1.8362E-01  2.8693E-01  3.5049E-01
  3.5049E-01  3.7051E-01  4.6224E-01  5.2666E-01  5.3536E-01  6.4639E-01
  6.4639E-01  6.6522E-01  8.3925E-01  9.9229E-01  9.9235E-01
  prteigrs : nnsclo,ikpt=  100    1 max resid (incl. the buffer)=  5.24042E-05
 Non-SCF case, kpt    2 ( -0.12500 -0.37500  0.00000), residuals and eigenvalues=
  7.72E-12  1.82E-11  6.02E-12  4.35E-11  6.49E-11  4.29E-11  1.37E-11  1.85E-11
  6.89E-12  2.72E-11  8.94E-12  7.44E-11  1.13E-11  5.19E-11  3.94E-11  2.58E-10
  2.64E-09
 -1.6630E-01  1.9605E-02  1.4562E-01  1.5407E-01  2.9694E-01  3.4866E-01
  3.8047E-01  4.1692E-01  5.5659E-01  5.7197E-01  5.7366E-01  6.9895E-01
  7.2723E-01  7.9012E-01  8.3252E-01  8.7275E-01  9.0826E-01
  prteigrs : nnsclo,ikpt=  100    2 max resid (incl. the buffer)=  2.63539E-09
 Non-SCF case, kpt    3 ( -0.25000 -0.25000  0.00000), residuals and eigenvalues=
  4.57E-12  5.88E-12  1.60E-11  5.88E-11  5.27E-12  7.69E-11  1.85E-11  4.50E-11
  6.49E-11  6.05E-11  4.17E-11  3.35E-11  2.64E-11  3.09E-11  1.06E-08  1.02E-07
  2.36E-05
 -1.8383E-01  8.6276E-02  1.4278E-01  1.4278E-01  2.5444E-01  3.3029E-01
  4.2746E-01  4.2746E-01  5.0618E-01  5.6070E-01  6.2235E-01  7.0053E-01
  7.0053E-01  7.2482E-01  8.6271E-01  8.6271E-01  9.2088E-01
  prteigrs : nnsclo,ikpt=  100    3 max resid (incl. the buffer)=  2.35588E-05
 Non-SCF case, kpt    4 ( -0.12500 -0.25000  0.12500), residuals and eigenvalues=
  5.18E-11  6.27E-12  2.87E-11  9.27E-11  7.51E-11  3.94E-11  9.03E-11  9.40E-11
  6.83E-12  3.47E-11  3.19E-12  1.74E-11  1.48E-11  3.04E-11  2.64E-11  1.89E-09
  6.12E-06
 -1.7462E-01  5.6943E-02  1.1225E-01  1.6025E-01  3.0318E-01  3.5668E-01
  3.7072E-01  4.1763E-01  5.0606E-01  5.9624E-01  6.1368E-01  6.6474E-01
  7.3793E-01  7.6588E-01  8.1758E-01  8.8752E-01  9.4252E-01
  prteigrs : nnsclo,ikpt=  100    4 max resid (incl. the buffer)=  6.12037E-06
 Non-SCF case, kpt    5 ( -0.12500  0.37500  0.00000), residuals and eigenvalues=
  8.70E-11  5.13E-11  9.43E-12  9.64E-11  9.11E-11  1.31E-11  1.85E-11  1.30E-11
  1.42E-11  3.04E-11  1.05E-11  4.97E-11  4.15E-11  6.07E-11  9.79E-10  8.31E-08
  2.37E-05
 -1.4338E-01 -2.0746E-02  1.2223E-01  1.6610E-01  3.0269E-01  3.4849E-01
  3.5766E-01  5.0133E-01  5.2263E-01  5.5405E-01  6.2907E-01  6.7890E-01
  7.4820E-01  7.5866E-01  8.4335E-01  9.1354E-01  9.9541E-01
  prteigrs : nnsclo,ikpt=  100    5 max resid (incl. the buffer)=  2.37029E-05
 Non-SCF case, kpt    6 ( -0.25000  0.50000  0.00000), residuals and eigenvalues=
  2.00E-11  3.69E-11  6.37E-11  1.81E-11  3.60E-11  6.39E-12  9.76E-11  1.74E-11
  4.88E-11  1.11E-11  3.22E-11  5.77E-11  4.31E-11  2.21E-08  5.76E-07  2.45E-05
  1.25E-04
 -1.2308E-01 -1.9454E-02  8.2006E-02  1.3090E-01  2.7044E-01  3.7939E-01
  4.2588E-01  4.3511E-01  5.9036E-01  6.1906E-01  6.7923E-01  6.8074E-01
  6.8747E-01  8.4416E-01  8.8671E-01  9.0973E-01  9.4444E-01
  prteigrs : nnsclo,ikpt=  100    6 max resid (incl. the buffer)=  1.25080E-04
 Non-SCF case, kpt    7 ( -0.12500  0.50000  0.12500), residuals and eigenvalues=
  7.30E-11  1.92E-11  4.72E-12  7.71E-12  3.78E-11  6.78E-11  7.09E-11  3.96E-12
  1.50E-11  8.38E-12  1.72E-11  3.38E-11  4.95E-11  9.97E-11  1.47E-10  1.21E-09
  1.52E-06
 -1.1747E-01 -3.4963E-02  8.5557E-02  1.3267E-01  3.2864E-01  3.2987E-01
  4.3379E-01  4.8167E-01  4.8562E-01  6.1512E-01  6.4652E-01  6.7052E-01
  7.8556E-01  8.0486E-01  8.8840E-01  9.0924E-01  9.5128E-01
  prteigrs : nnsclo,ikpt=  100    7 max resid (incl. the buffer)=  1.51611E-06
 Non-SCF case, kpt    8 ( -0.37500 -0.37500  0.00000), residuals and eigenvalues=
  2.30E-11  5.69E-11  7.25E-12  9.45E-12  5.35E-11  1.04E-11  8.50E-11  2.89E-11
  5.76E-11  1.29E-11  7.06E-12  2.26E-11  2.08E-10  1.22E-08  1.27E-08  7.54E-09
  8.50E-09
 -1.3542E-01  4.6399E-03  1.1592E-01  1.1592E-01  2.3641E-01  2.7154E-01
  5.1365E-01  5.1365E-01  5.9838E-01  6.1803E-01  7.0250E-01  7.1751E-01
  7.1751E-01  8.0052E-01  8.1185E-01  8.2790E-01  8.2790E-01
  prteigrs : nnsclo,ikpt=  100    8 max resid (incl. the buffer)=  1.26983E-08
 Non-SCF case, kpt    9 ( -0.25000 -0.37500  0.12500), residuals and eigenvalues=
  1.62E-11  1.79E-11  2.86E-11  6.21E-11  5.77E-11  4.02E-11  3.91E-11  8.59E-12
  8.80E-11  8.64E-12  3.92E-11  9.19E-11  9.97E-12  1.18E-11  7.69E-11  5.69E-09
  5.80E-06
 -1.2817E-01 -3.3390E-03  8.7848E-02  1.1019E-01  2.8550E-01  3.1229E-01
  4.2737E-01  5.1051E-01  5.9419E-01  5.9696E-01  6.9045E-01  7.2504E-01
  7.3594E-01  7.5910E-01  8.2712E-01  8.6586E-01  9.4257E-01
  prteigrs : nnsclo,ikpt=  100    9 max resid (incl. the buffer)=  5.80064E-06
 Non-SCF case, kpt   10 ( -0.12500 -0.37500  0.25000), residuals and eigenvalues=
  1.17E-11  1.87E-11  6.79E-11  5.34E-12  2.04E-11  5.88E-12  5.00E-11  1.73E-11
  7.91E-11  5.47E-11  2.16E-11  1.26E-11  7.85E-11  5.07E-11  3.15E-10  7.37E-06
  1.95E-06
 -1.0840E-01 -2.4833E-02  5.5482E-02  1.1683E-01  3.2054E-01  3.8303E-01
  4.0745E-01  4.7514E-01  5.0671E-01  5.6126E-01  7.3484E-01  7.4777E-01
  7.4948E-01  8.3199E-01  8.3412E-01  9.1981E-01  9.3632E-01
  prteigrs : nnsclo,ikpt=  100   10 max resid (incl. the buffer)=  7.37354E-06
 Non-SCF case, kpt   11 ( -0.12500  0.12500  0.00000), residuals and eigenvalues=
  9.05E-11  5.56E-12  1.78E-11  2.34E-11  6.13E-11  6.44E-11  5.96E-11  8.97E-12
  4.58E-11  6.49E-11  2.46E-11  3.79E-11  7.73E-11  2.20E-11  6.43E-10  1.84E-09
  9.77E-06
 -2.0277E-01  1.1541E-01  1.5277E-01  2.0337E-01  3.2439E-01  3.2821E-01
  3.3805E-01  4.1493E-01  4.5926E-01  5.1816E-01  5.6222E-01  6.2750E-01
  6.7139E-01  7.5736E-01  8.7734E-01  8.8033E-01  9.9234E-01
  prteigrs : nnsclo,ikpt=  100   11 max resid (incl. the buffer)=  9.76605E-06
 Non-SCF case, kpt   12 ( -0.25000  0.25000  0.00000), residuals and eigenvalues=
  1.15E-11  3.61E-11  1.04E-11  7.72E-12  2.76E-11  3.55E-11  3.51E-12  1.78E-11
  2.70E-11  5.87E-12  1.27E-11  8.83E-11  3.46E-11  5.89E-11  1.92E-10  4.70E-09
  3.26E-08
 -1.4830E-01  1.3650E-02  7.3304E-02  1.6380E-01  3.0435E-01  3.9032E-01
  4.0546E-01  4.3575E-01  4.6349E-01  5.6966E-01  6.7575E-01  7.0762E-01
  7.1203E-01  8.3154E-01  8.6274E-01  8.8264E-01  9.1544E-01
  prteigrs : nnsclo,ikpt=  100   12 max resid (incl. the buffer)=  3.25786E-08
 Non-SCF case, kpt   13 ( -0.37500  0.37500  0.00000), residuals and eigenvalues=
  6.50E-12  1.64E-11  4.30E-11  3.17E-11  1.22E-11  8.44E-12  3.83E-12  5.58E-11
  7.02E-11  5.90E-11  1.41E-11  2.05E-11  9.45E-11  9.85E-11  8.06E-11  3.00E-10
  1.03E-06
 -8.5674E-02 -4.8386E-02  5.2549E-02  1.2269E-01  2.5964E-01  3.6818E-01
  4.8929E-01  5.1153E-01  5.1696E-01  5.4413E-01  7.4392E-01  7.9355E-01
  7.9912E-01  8.0068E-01  8.0500E-01  8.5697E-01  9.6258E-01
  prteigrs : nnsclo,ikpt=  100   13 max resid (incl. the buffer)=  1.03415E-06
 Non-SCF case, kpt   14 (  0.50000  0.50000  0.00000), residuals and eigenvalues=
  9.16E-11  9.39E-12  2.17E-11  5.69E-12  8.14E-12  4.01E-11  7.79E-11  4.55E-11
  3.31E-11  6.45E-12  4.97E-11  1.52E-11  4.18E-11  3.32E-11  2.36E-06  2.06E-04
  1.12E-05
 -7.0984E-02 -7.0984E-02  1.0670E-01  1.0670E-01  2.4060E-01  2.4060E-01
  5.8171E-01  5.8171E-01  6.4779E-01  6.4779E-01  6.8025E-01  6.8025E-01
  7.0057E-01  7.0057E-01  9.2901E-01  9.3007E-01  9.4208E-01
  prteigrs : nnsclo,ikpt=  100   14 max resid (incl. the buffer)=  2.06144E-04
 Non-SCF case, kpt   15 ( -0.37500  0.50000  0.12500), residuals and eigenvalues=
  1.40E-11  5.10E-11  1.22E-11  3.09E-11  6.03E-11  1.73E-11  6.50E-11  8.15E-11
  1.01E-11  7.88E-12  2.15E-11  2.63E-11  3.33E-11  4.60E-10  5.40E-09  2.75E-08
  2.91E-11
 -6.8112E-02 -6.8112E-02  8.5738E-02  8.5738E-02  2.8717E-01  2.8717E-01
  5.0510E-01  5.0510E-01  6.1529E-01  6.1529E-01  6.9348E-01  6.9348E-01
  8.0107E-01  8.0107E-01  8.6711E-01  8.6711E-01  9.1292E-01
  prteigrs : nnsclo,ikpt=  100   15 max resid (incl. the buffer)=  2.75279E-08
 Non-SCF case, kpt   16 ( -0.25000  0.50000  0.25000), residuals and eigenvalues=
  4.66E-11  9.26E-12  8.90E-11  2.62E-11  3.00E-11  1.04E-11  6.09E-12  3.03E-11
  5.72E-11  3.11E-11  2.39E-11  3.78E-11  1.03E-08  2.16E-08  1.65E-07  8.98E-07
  7.61E-06
 -6.3833E-02 -6.3833E-02  6.9319E-02  6.9319E-02  3.7371E-01  3.7371E-01
  3.9881E-01  3.9881E-01  6.1402E-01  6.1402E-01  7.0006E-01  7.0006E-01
  8.2932E-01  8.2932E-01  8.9081E-01  8.9081E-01  9.3027E-01
  prteigrs : nnsclo,ikpt=  100   16 max resid (incl. the buffer)=  7.61272E-06
 Non-SCF case, kpt   17 ( -0.25000  0.00000  0.00000), residuals and eigenvalues=
  1.21E-11  5.30E-11  9.18E-11  1.65E-11  6.99E-12  1.79E-11  1.33E-11  4.64E-11
  9.07E-11  4.45E-11  2.30E-11  1.83E-11  2.12E-11  7.54E-11  2.41E-07  3.26E-08
  3.13E-07
 -1.9341E-01  6.9083E-02  1.8540E-01  1.8540E-01  2.8685E-01  3.4356E-01
  3.4356E-01  4.6103E-01  4.8972E-01  4.8972E-01  5.3652E-01  6.4217E-01
  7.6603E-01  7.6603E-01  8.8294E-01  8.8523E-01  8.8523E-01
  prteigrs : nnsclo,ikpt=  100   17 max resid (incl. the buffer)=  3.12747E-07
 Non-SCF case, kpt   18 (  0.50000  0.00000  0.00000), residuals and eigenvalues=
  1.40E-11  1.58E-11  1.35E-11  1.08E-11  7.52E-11  3.20E-11  2.24E-11  1.40E-11
  2.87E-11  5.42E-11  4.06E-11  3.18E-11  1.07E-10  3.26E-11  1.72E-07  3.83E-08
  4.55E-05
 -1.3603E-01 -4.3348E-02  1.6867E-01  1.6867E-01  2.7316E-01  3.3830E-01
  3.3830E-01  4.9105E-01  6.2417E-01  6.2934E-01  6.2934E-01  6.3573E-01
  6.3573E-01  6.7596E-01  9.4780E-01  9.4890E-01  1.0328E+00
  prteigrs : nnsclo,ikpt=  100   18 max resid (incl. the buffer)=  4.54967E-05
 Non-SCF case, kpt   19 (  0.00000  0.00000  0.00000), residuals and eigenvalues=
  5.47E-12  5.15E-11  7.62E-11  6.09E-11  2.76E-11  1.77E-11  9.28E-11  5.21E-11
  6.24E-11  5.42E-12  2.60E-11  2.95E-11  2.81E-11  5.08E-11  5.66E-11  1.44E-05
  8.06E-05
 -2.2515E-01  2.1370E-01  2.1370E-01  2.1370E-01  3.0716E-01  3.0716E-01
  3.0716E-01  3.3175E-01  4.9474E-01  5.1536E-01  5.1536E-01  6.2584E-01
  6.2584E-01  6.2584E-01  7.6422E-01  1.0997E+00  1.0998E+00
  prteigrs : nnsclo,ikpt=  100   19 max resid (incl. the buffer)=  8.06205E-05

======================================================================
 Calculating and writing out Kohn-Sham electronic Structure file
 Using conjugate gradient wavefunctions and energies (kssform=3)
 number of Gamma centered plane waves    253
 number of Gamma centered shells     15
 number of bands     12
 maximum angular momentum components      3
 Conjugate gradient eigenvalues
   k    eigenvalues [Hartree]
   1     -0.2130  0.1654  0.1836  0.1836  0.2869  0.3505  0.3505  0.3705  0.4622
          0.5267  0.5354  0.6464
   2     -0.1663  0.0196  0.1456  0.1541  0.2969  0.3487  0.3805  0.4169  0.5566
          0.5720  0.5737  0.6989
   3     -0.1838  0.0863  0.1428  0.1428  0.2544  0.3303  0.4275  0.4275  0.5062
          0.5607  0.6224  0.7005
   4     -0.1746  0.0569  0.1122  0.1603  0.3032  0.3567  0.3707  0.4176  0.5061
          0.5962  0.6137  0.6647
   5     -0.1434 -0.0207  0.1222  0.1661  0.3027  0.3485  0.3577  0.5013  0.5226
          0.5540  0.6291  0.6789
   6     -0.1231 -0.0195  0.0820  0.1309  0.2704  0.3794  0.4259  0.4351  0.5904
          0.6191  0.6792  0.6807
   7     -0.1175 -0.0350  0.0856  0.1327  0.3286  0.3299  0.4338  0.4817  0.4856
          0.6151  0.6465  0.6705
   8     -0.1354  0.0046  0.1159  0.1159  0.2364  0.2715  0.5136  0.5136  0.5984
          0.6180  0.7025  0.7175
   9     -0.1282 -0.0033  0.0878  0.1102  0.2855  0.3123  0.4274  0.5105  0.5942
          0.5970  0.6905  0.7250
  10     -0.1084 -0.0248  0.0555  0.1168  0.3205  0.3830  0.4074  0.4751  0.5067
          0.5613  0.7348  0.7478
  11     -0.2028  0.1154  0.1528  0.2034  0.3244  0.3282  0.3380  0.4149  0.4593
          0.5182  0.5622  0.6275
  12     -0.1483  0.0136  0.0733  0.1638  0.3044  0.3903  0.4055  0.4358  0.4635
          0.5697  0.6757  0.7076
  13     -0.0857 -0.0484  0.0525  0.1227  0.2596  0.3682  0.4893  0.5115  0.5170
          0.5441  0.7439  0.7935
  14     -0.0710 -0.0710  0.1067  0.1067  0.2406  0.2406  0.5817  0.5817  0.6478
          0.6478  0.6802  0.6802
  15     -0.0681 -0.0681  0.0857  0.0857  0.2872  0.2872  0.5051  0.5051  0.6153
          0.6153  0.6935  0.6935
  16     -0.0638 -0.0638  0.0693  0.0693  0.3737  0.3737  0.3988  0.3988  0.6140
          0.6140  0.7001  0.7001
  17     -0.1934  0.0691  0.1854  0.1854  0.2869  0.3436  0.3436  0.4610  0.4897
          0.4897  0.5365  0.6422
  18     -0.1360 -0.0433  0.1687  0.1687  0.2732  0.3383  0.3383  0.4910  0.6242
          0.6293  0.6293  0.6357
  19     -0.2251  0.2137  0.2137  0.2137  0.3072  0.3072  0.3072  0.3318  0.4947
          0.5154  0.5154  0.6258
 Test on the normalization of the wavefunctions
  min sum_G |a(n,k,G)| =  1.000000
  max sum_G |a(n,k,G)| =  1.000000
 Test on the orthogonalization of the wavefunctions
  min sum_G a(n,k,G)a(n',k,G) =  0.000000
  max sum_G a(n,k,G)a(n',k,G) =  0.000000

================================================================================

 ----iterations are completed or convergence reached----

 Mean square residual over all n,k,spin=   2.0302E-06; max=  1.2508E-04
  -0.1250 -0.1250  0.0000    1  5.24042E-05 kpt; spin; max resid(k); each band:
  9.31E-11 4.93E-11 8.82E-11 7.34E-12 1.53E-11 1.96E-11 7.38E-12 1.56E-11
  2.78E-11 1.11E-11 2.50E-11 2.78E-11 1.46E-10 1.66E-11 2.91E-10 2.32E-06
  5.24E-05
  -0.1250 -0.3750  0.0000    1  2.63539E-09 kpt; spin; max resid(k); each band:
  7.72E-12 1.82E-11 6.02E-12 4.35E-11 6.49E-11 4.29E-11 1.37E-11 1.85E-11
  6.89E-12 2.72E-11 8.94E-12 7.44E-11 1.13E-11 5.19E-11 3.94E-11 2.58E-10
  2.64E-09
  -0.2500 -0.2500  0.0000    1  2.35588E-05 kpt; spin; max resid(k); each band:
  4.57E-12 5.88E-12 1.60E-11 5.88E-11 5.27E-12 7.69E-11 1.85E-11 4.50E-11
  6.49E-11 6.05E-11 4.17E-11 3.35E-11 2.64E-11 3.09E-11 1.06E-08 1.02E-07
  2.36E-05
  -0.1250 -0.2500  0.1250    1  6.12037E-06 kpt; spin; max resid(k); each band:
  5.18E-11 6.27E-12 2.87E-11 9.27E-11 7.51E-11 3.94E-11 9.03E-11 9.40E-11
  6.83E-12 3.47E-11 3.19E-12 1.74E-11 1.48E-11 3.04E-11 2.64E-11 1.89E-09
  6.12E-06
  -0.1250  0.3750  0.0000    1  2.37029E-05 kpt; spin; max resid(k); each band:
  8.70E-11 5.13E-11 9.43E-12 9.64E-11 9.11E-11 1.31E-11 1.85E-11 1.30E-11
  1.42E-11 3.04E-11 1.05E-11 4.97E-11 4.15E-11 6.07E-11 9.79E-10 8.31E-08
  2.37E-05
  -0.2500  0.5000  0.0000    1  1.25080E-04 kpt; spin; max resid(k); each band:
  2.00E-11 3.69E-11 6.37E-11 1.81E-11 3.60E-11 6.39E-12 9.76E-11 1.74E-11
  4.88E-11 1.11E-11 3.22E-11 5.77E-11 4.31E-11 2.21E-08 5.76E-07 2.45E-05
  1.25E-04
  -0.1250  0.5000  0.1250    1  1.51611E-06 kpt; spin; max resid(k); each band:
  7.30E-11 1.92E-11 4.72E-12 7.71E-12 3.78E-11 6.78E-11 7.09E-11 3.96E-12
  1.50E-11 8.38E-12 1.72E-11 3.38E-11 4.95E-11 9.97E-11 1.47E-10 1.21E-09
  1.52E-06
  -0.3750 -0.3750  0.0000    1  1.26983E-08 kpt; spin; max resid(k); each band:
  2.30E-11 5.69E-11 7.25E-12 9.45E-12 5.35E-11 1.04E-11 8.50E-11 2.89E-11
  5.76E-11 1.29E-11 7.06E-12 2.26E-11 2.08E-10 1.22E-08 1.27E-08 7.54E-09
  8.50E-09
  -0.2500 -0.3750  0.1250    1  5.80064E-06 kpt; spin; max resid(k); each band:
  1.62E-11 1.79E-11 2.86E-11 6.21E-11 5.77E-11 4.02E-11 3.91E-11 8.59E-12
  8.80E-11 8.64E-12 3.92E-11 9.19E-11 9.97E-12 1.18E-11 7.69E-11 5.69E-09
  5.80E-06
  -0.1250 -0.3750  0.2500    1  7.37354E-06 kpt; spin; max resid(k); each band:
  1.17E-11 1.87E-11 6.79E-11 5.34E-12 2.04E-11 5.88E-12 5.00E-11 1.73E-11
  7.91E-11 5.47E-11 2.16E-11 1.26E-11 7.85E-11 5.07E-11 3.15E-10 7.37E-06
  1.95E-06
  -0.1250  0.1250  0.0000    1  9.76605E-06 kpt; spin; max resid(k); each band:
  9.05E-11 5.56E-12 1.78E-11 2.34E-11 6.13E-11 6.44E-11 5.96E-11 8.97E-12
  4.58E-11 6.49E-11 2.46E-11 3.79E-11 7.73E-11 2.20E-11 6.43E-10 1.84E-09
  9.77E-06
  -0.2500  0.2500  0.0000    1  3.25786E-08 kpt; spin; max resid(k); each band:
  1.15E-11 3.61E-11 1.04E-11 7.72E-12 2.76E-11 3.55E-11 3.51E-12 1.78E-11
  2.70E-11 5.87E-12 1.27E-11 8.83E-11 3.46E-11 5.89E-11 1.92E-10 4.70E-09
  3.26E-08
  -0.3750  0.3750  0.0000    1  1.03415E-06 kpt; spin; max resid(k); each band:
  6.50E-12 1.64E-11 4.30E-11 3.17E-11 1.22E-11 8.44E-12 3.83E-12 5.58E-11
  7.02E-11 5.90E-11 1.41E-11 2.05E-11 9.45E-11 9.85E-11 8.06E-11 3.00E-10
  1.03E-06
   0.5000  0.5000  0.0000    1  2.06144E-04 kpt; spin; max resid(k); each band:
  9.16E-11 9.39E-12 2.17E-11 5.69E-12 8.14E-12 4.01E-11 7.79E-11 4.55E-11
  3.31E-11 6.45E-12 4.97E-11 1.52E-11 4.18E-11 3.32E-11 2.36E-06 2.06E-04
  1.12E-05
  -0.3750  0.5000  0.1250    1  2.75279E-08 kpt; spin; max resid(k); each band:
  1.40E-11 5.10E-11 1.22E-11 3.09E-11 6.03E-11 1.73E-11 6.50E-11 8.15E-11
  1.01E-11 7.88E-12 2.15E-11 2.63E-11 3.33E-11 4.60E-10 5.40E-09 2.75E-08
  2.91E-11
  -0.2500  0.5000  0.2500    1  7.61272E-06 kpt; spin; max resid(k); each band:
  4.66E-11 9.26E-12 8.90E-11 2.62E-11 3.00E-11 1.04E-11 6.09E-12 3.03E-11
  5.72E-11 3.11E-11 2.39E-11 3.78E-11 1.03E-08 2.16E-08 1.65E-07 8.98E-07
  7.61E-06
  -0.2500  0.0000  0.0000    1  3.12747E-07 kpt; spin; max resid(k); each band:
  1.21E-11 5.30E-11 9.18E-11 1.65E-11 6.99E-12 1.79E-11 1.33E-11 4.64E-11
  9.07E-11 4.45E-11 2.30E-11 1.83E-11 2.12E-11 7.54E-11 2.41E-07 3.26E-08
  3.13E-07
   0.5000  0.0000  0.0000    1  4.54967E-05 kpt; spin; max resid(k); each band:
  1.40E-11 1.58E-11 1.35E-11 1.08E-11 7.52E-11 3.20E-11 2.24E-11 1.40E-11
  2.87E-11 5.42E-11 4.06E-11 3.18E-11 1.07E-10 3.26E-11 1.72E-07 3.83E-08
  4.55E-05
   0.0000  0.0000  0.0000    1  8.06205E-05 kpt; spin; max resid(k); each band:
  5.47E-12 5.15E-11 7.62E-11 6.09E-11 2.76E-11 1.77E-11 9.28E-11 5.21E-11
  6.24E-11 5.42E-12 2.60E-11 2.95E-11 2.81E-11 5.08E-11 5.66E-11 1.44E-05
  8.06E-05
 reduced coordinates (array xred) for    2 atoms
       0.000000000000      0.000000000000      0.000000000000
       0.250000000000      0.250000000000      0.250000000000

 cartesian coordinates (angstrom) at end:
    1      0.00000000000000     0.00000000000000     0.00000000000000
    2      1.35750000000000     1.35750000000000     1.35750000000000
 length scales= 10.261212901569 10.261212901569 10.261212901569 bohr
              =  5.430000000000  5.430000000000  5.430000000000 angstroms
 prteigrs : about to open file t71_MPI2o_DS2_EIG
 Eigenvalues (hartree) for nkpt=  19  k points:
 kpt#   1, nband= 17, wtk=  0.02344, kpt= -0.1250 -0.1250  0.0000 (reduced coord)
  -0.21305   0.16540   0.18362   0.18362   0.28693   0.35049   0.35049   0.37051
   0.46224   0.52666   0.53536   0.64639   0.64639   0.66522   0.83925   0.99229
   0.99235
 kpt#   2, nband= 17, wtk=  0.09375, kpt= -0.1250 -0.3750  0.0000 (reduced coord)
  -0.16630   0.01960   0.14562   0.15407   0.29694   0.34866   0.38047   0.41692
   0.55659   0.57197   0.57366   0.69895   0.72723   0.79012   0.83252   0.87275
   0.90826
 kpt#   3, nband= 17, wtk=  0.02344, kpt= -0.2500 -0.2500  0.0000 (reduced coord)
  -0.18383   0.08628   0.14278   0.14278   0.25444   0.33029   0.42746   0.42746
   0.50618   0.56070   0.62235   0.70053   0.70053   0.72482   0.86271   0.86271
   0.92088
 kpt#   4, nband= 17, wtk=  0.09375, kpt= -0.1250 -0.2500  0.1250 (reduced coord)
  -0.17462   0.05694   0.11225   0.16025   0.30318   0.35668   0.37072   0.41763
   0.50606   0.59624   0.61368   0.66474   0.73793   0.76588   0.81758   0.88752
   0.94252
 kpt#   5, nband= 17, wtk=  0.09375, kpt= -0.1250  0.3750  0.0000 (reduced coord)
  -0.14338  -0.02075   0.12223   0.16610   0.30269   0.34849   0.35766   0.50133
   0.52263   0.55405   0.62907   0.67890   0.74820   0.75866   0.84335   0.91354
   0.99541
 kpt#   6, nband= 17, wtk=  0.09375, kpt= -0.2500  0.5000  0.0000 (reduced coord)
  -0.12308  -0.01945   0.08201   0.13090   0.27044   0.37939   0.42588   0.43511
   0.59036   0.61906   0.67923   0.68074   0.68747   0.84416   0.88671   0.90973
   0.94444
 kpt#   7, nband= 17, wtk=  0.09375, kpt= -0.1250  0.5000  0.1250 (reduced coord)
  -0.11747  -0.03496   0.08556   0.13267   0.32864   0.32987   0.43379   0.48167
   0.48562   0.61512   0.64652   0.67052   0.78556   0.80486   0.88840   0.90924
   0.95128
 kpt#   8, nband= 17, wtk=  0.02344, kpt= -0.3750 -0.3750  0.0000 (reduced coord)
  -0.13542   0.00464   0.11592   0.11592   0.23641   0.27154   0.51365   0.51365
   0.59838   0.61803   0.70250   0.71751   0.71751   0.80052   0.81185   0.82790
   0.82790
 kpt#   9, nband= 17, wtk=  0.09375, kpt= -0.2500 -0.3750  0.1250 (reduced coord)
  -0.12817  -0.00334   0.08785   0.11019   0.28550   0.31229   0.42737   0.51051
   0.59419   0.59696   0.69045   0.72504   0.73594   0.75910   0.82712   0.86586
   0.94257
 kpt#  10, nband= 17, wtk=  0.09375, kpt= -0.1250 -0.3750  0.2500 (reduced coord)
  -0.10840  -0.02483   0.05548   0.11683   0.32054   0.38303   0.40745   0.47514
   0.50671   0.56126   0.73484   0.74777   0.74948   0.83199   0.83412   0.91981
   0.93632
 kpt#  11, nband= 17, wtk=  0.04688, kpt= -0.1250  0.1250  0.0000 (reduced coord)
  -0.20277   0.11541   0.15277   0.20337   0.32439   0.32821   0.33805   0.41493
   0.45926   0.51816   0.56222   0.62750   0.67139   0.75736   0.87734   0.88033
   0.99234
 kpt#  12, nband= 17, wtk=  0.04688, kpt= -0.2500  0.2500  0.0000 (reduced coord)
  -0.14830   0.01365   0.07330   0.16380   0.30435   0.39032   0.40546   0.43575
   0.46349   0.56966   0.67575   0.70762   0.71203   0.83154   0.86274   0.88264
   0.91544
 kpt#  13, nband= 17, wtk=  0.04688, kpt= -0.3750  0.3750  0.0000 (reduced coord)
  -0.08567  -0.04839   0.05255   0.12269   0.25964   0.36818   0.48929   0.51153
   0.51696   0.54413   0.74392   0.79355   0.79912   0.80068   0.80500   0.85697
   0.96258
 kpt#  14, nband= 17, wtk=  0.01172, kpt=  0.5000  0.5000  0.0000 (reduced coord)
  -0.07098  -0.07098   0.10670   0.10670   0.24060   0.24060   0.58171   0.58171
   0.64779   0.64779   0.68025   0.68025   0.70057   0.70057   0.92901   0.93007
   0.94208
 kpt#  15, nband= 17, wtk=  0.04688, kpt= -0.3750  0.5000  0.1250 (reduced coord)
  -0.06811  -0.06811   0.08574   0.08574   0.28717   0.28717   0.50510   0.50510
   0.61529   0.61529   0.69348   0.69348   0.80107   0.80107   0.86711   0.86711
   0.91292
 kpt#  16, nband= 17, wtk=  0.02344, kpt= -0.2500  0.5000  0.2500 (reduced coord)
  -0.06383  -0.06383   0.06932   0.06932   0.37371   0.37371   0.39881   0.39881
   0.61402   0.61402   0.70006   0.70006   0.82932   0.82932   0.89081   0.89081
   0.93027
 kpt#  17, nband= 17, wtk=  0.03125, kpt= -0.2500  0.0000  0.0000 (reduced coord)
  -0.19341   0.06908   0.18540   0.18540   0.28685   0.34356   0.34356   0.46103
   0.48972   0.48972   0.53652   0.64217   0.76603   0.76603   0.88294   0.88523
   0.88523
 kpt#  18, nband= 17, wtk=  0.01563, kpt=  0.5000  0.0000  0.0000 (reduced coord)
  -0.13603  -0.04335   0.16867   0.16867   0.27316   0.33830   0.33830   0.49105
   0.62417   0.62934   0.62934   0.63573   0.63573   0.67596   0.94780   0.94890
   1.03284
 kpt#  19, nband= 17, wtk=  0.00391, kpt=  0.0000  0.0000  0.0000 (reduced coord)
  -0.22515   0.21370   0.21370   0.21370   0.30716   0.30716   0.30716   0.33175
   0.49474   0.51536   0.51536   0.62584   0.62584   0.62584   0.76422   1.09975
   1.09984
 Total charge density [el/Bohr^3]
,     Maximum=    8.6379E-02  at reduced coord.    0.1333    0.1333    0.6000
,Next maximum=    8.6379E-02  at reduced coord.    0.1333    0.6000    0.1333
,     Minimum=    3.5511E-03  at reduced coord.    0.7333    0.7333    0.7333
,Next minimum=    3.5511E-03  at reduced coord.    0.8000    0.7333    0.7333
,  Integrated=    8.0000E+00

================================================================================
== DATASET  3 ==================================================================
-   nproc =    2

 mkfilename : getkss/=0, take file _KSS from output of DATASET   2.

 Exchange-correlation functional for the present dataset will be:
  LDA: new Teter (4/93) with spin-polarized option - ixc=1
 Citation for XC functional:
  S. Goedecker, M. Teter, J. Huetter, PRB 54, 1703 (1996)

 SCREENING: Calculation of the susceptibility and dielectric matrices 

 Based on a program developped by R.W. Godby, V. Olevano, G. Onida, and L. Reining.
 Incorporated in ABINIT by V. Olevano, G.-M. Rignanese, and M. Torrent.
.Using double precision arithmetic ; gwpc =  8

 Real(R)+Recip(G) space primitive vectors, cartesian coordinates (Bohr,Bohr^-1):
 R(1)=  0.0000000  5.1306065  5.1306065  G(1)= -0.0974544  0.0974544  0.0974544
 R(2)=  5.1306065  0.0000000  5.1306065  G(2)=  0.0974544 -0.0974544  0.0974544
 R(3)=  5.1306065  5.1306065  0.0000000  G(3)=  0.0974544  0.0974544 -0.0974544
 Unit cell volume ucvol=  2.7010716E+02 bohr^3
 Angles (23,13,12)=  6.00000000E+01  6.00000000E+01  6.00000000E+01 degrees

--- Pseudopotential description ------------------------------------------------
- pspini: atom type   1  psp file is /data/ABINIT/testf_gcc47/trunk_7.9.3-private/tests/Psps_for_tests/14si.pspnc
- pspatm: opening atomic psp file    /data/ABINIT/testf_gcc47/trunk_7.9.3-private/tests/Psps_for_tests/14si.pspnc
-  Troullier-Martins psp for element  Si        Thu Oct 27 17:31:21 EDT 1994
- 14.00000   4.00000    940714                znucl, zion, pspdat
    1    1    2    2      2001   0.00000      pspcod,pspxc,lmax,lloc,mmax,r2well
    0   5.907  14.692    1   2.0872718        l,e99.0,e99.9,nproj,rcpsp
   0.00000000   0.00000000   0.00000000   0.00000000     rms, ekb1, ekb2, epsatm
    1   2.617   4.181    1   2.0872718        l,e99.0,e99.9,nproj,rcpsp
   0.00000000   0.00000000   0.00000000   0.00000000     rms, ekb1, ekb2, epsatm
    2   0.000   0.000    0   2.0872718        l,e99.0,e99.9,nproj,rcpsp
   0.00000000   0.00000000   0.00000000   0.00000000     rms, ekb1, ekb2, epsatm
    1.80626423934776    0.22824404341771    1.17378968127746   rchrg,fchrg,qchrg
 pspatm: epsatm=    1.43386982
         --- l  ekb(1:nproj) -->
             0    3.287949
             1    1.849886
 pspatm: atomic psp has been read  and splines computed

--------------------------------------------------------------------------------

 ==== K-mesh for the wavefunctions ====
 Number of points in the irreducible wedge :    19
 Reduced coordinates and weights : 

     1)    -1.25000000E-01 -1.25000000E-01  0.00000000E+00       0.02344
     2)    -1.25000000E-01 -3.75000000E-01  0.00000000E+00       0.09375
     3)    -2.50000000E-01 -2.50000000E-01  0.00000000E+00       0.02344
     4)    -1.25000000E-01 -2.50000000E-01  1.25000000E-01       0.09375
     5)    -1.25000000E-01  3.75000000E-01  0.00000000E+00       0.09375
     6)    -2.50000000E-01  5.00000000E-01  0.00000000E+00       0.09375
     7)    -1.25000000E-01  5.00000000E-01  1.25000000E-01       0.09375
     8)    -3.75000000E-01 -3.75000000E-01  0.00000000E+00       0.02344
     9)    -2.50000000E-01 -3.75000000E-01  1.25000000E-01       0.09375
    10)    -1.25000000E-01 -3.75000000E-01  2.50000000E-01       0.09375
    11)    -1.25000000E-01  1.25000000E-01  0.00000000E+00       0.04688
    12)    -2.50000000E-01  2.50000000E-01  0.00000000E+00       0.04688
    13)    -3.75000000E-01  3.75000000E-01  0.00000000E+00       0.04688
    14)     5.00000000E-01  5.00000000E-01  0.00000000E+00       0.01172
    15)    -3.75000000E-01  5.00000000E-01  1.25000000E-01       0.04688
    16)    -2.50000000E-01  5.00000000E-01  2.50000000E-01       0.02344
    17)    -2.50000000E-01  0.00000000E+00  0.00000000E+00       0.03125
    18)     5.00000000E-01  0.00000000E+00  0.00000000E+00       0.01563
    19)     0.00000000E+00  0.00000000E+00  0.00000000E+00       0.00391

 Together with 48 symmetry operations and time-reversal symmetry 
 yields   256 points in the full Brillouin Zone.


 ==== Q-mesh for the screening function ====
 Number of points in the irreducible wedge :    19
 Reduced coordinates and weights : 

     1)     0.00000000E+00  0.00000000E+00  0.00000000E+00       0.00391
     2)     2.50000000E-01  2.50000000E-01  0.00000000E+00       0.02344
     3)     2.50000000E-01  1.25000000E-01  1.25000000E-01       0.04688
     4)     0.00000000E+00 -2.50000000E-01  0.00000000E+00       0.03125
     5)     2.50000000E-01  5.00000000E-01  0.00000000E+00       0.09375
     6)     2.50000000E-01 -1.25000000E-01  1.25000000E-01       0.09375
     7)     0.00000000E+00  3.75000000E-01 -1.25000000E-01       0.09375
     8)    -1.25000000E-01 -1.25000000E-01  0.00000000E+00       0.02344
     9)     3.75000000E-01  3.75000000E-01  0.00000000E+00       0.02344
    10)     2.50000000E-01  3.75000000E-01 -1.25000000E-01       0.09375
    11)     0.00000000E+00  2.50000000E-01 -2.50000000E-01       0.04688
    12)     3.75000000E-01  0.00000000E+00  1.25000000E-01       0.09375
    13)     0.00000000E+00  5.00000000E-01  0.00000000E+00       0.01563
    14)     2.50000000E-01 -3.75000000E-01  1.25000000E-01       0.09375
    15)     3.75000000E-01 -3.75000000E-01  0.00000000E+00       0.04688
    16)     2.50000000E-01 -3.75000000E-01 -1.25000000E-01       0.09375
    17)     5.00000000E-01  5.00000000E-01  0.00000000E+00       0.01172
    18)     3.75000000E-01  5.00000000E-01 -1.25000000E-01       0.04688
    19)     2.50000000E-01  5.00000000E-01 -2.50000000E-01       0.02344

 Together with 48 symmetry operations and time-reversal symmetry 
 yields   256 points in the full Brillouin Zone.


 setmesh: FFT mesh size selected  =  20x 20x 20
          total number of points  =     8000


 k       eigenvalues [eV]
  1         -5.80   4.50   5.00   5.00   7.81   9.54   9.54  10.08  12.58  14.33
            14.57  17.59
  2         -4.53   0.53   3.96   4.19   8.08   9.49  10.35  11.34  15.15  15.56
            15.61  19.02
  3         -5.00   2.35   3.89   3.89   6.92   8.99  11.63  11.63  13.77  15.26
            16.94  19.06
  4         -4.75   1.55   3.05   4.36   8.25   9.71  10.09  11.36  13.77  16.22
            16.70  18.09
  5         -3.90  -0.56   3.33   4.52   8.24   9.48   9.73  13.64  14.22  15.08
            17.12  18.47
  6         -3.35  -0.53   2.23   3.56   7.36  10.32  11.59  11.84  16.06  16.85
            18.48  18.52
  7         -3.20  -0.95   2.33   3.61   8.94   8.98  11.80  13.11  13.21  16.74
            17.59  18.25
  8         -3.69   0.13   3.15   3.15   6.43   7.39  13.98  13.98  16.28  16.82
            19.12  19.52
  9         -3.49  -0.09   2.39   3.00   7.77   8.50  11.63  13.89  16.17  16.24
            18.79  19.73
 10         -2.95  -0.68   1.51   3.18   8.72  10.42  11.09  12.93  13.79  15.27
            20.00  20.35
 11         -5.52   3.14   4.16   5.53   8.83   8.93   9.20  11.29  12.50  14.10
            15.30  17.08
 12         -4.04   0.37   1.99   4.46   8.28  10.62  11.03  11.86  12.61  15.50
            18.39  19.26
 13         -2.33  -1.32   1.43   3.34   7.07  10.02  13.31  13.92  14.07  14.81
            20.24  21.59
 14         -1.93  -1.93   2.90   2.90   6.55   6.55  15.83  15.83  17.63  17.63
            18.51  18.51
 15         -1.85  -1.85   2.33   2.33   7.81   7.81  13.74  13.74  16.74  16.74
            18.87  18.87
 16         -1.74  -1.74   1.89   1.89  10.17  10.17  10.85  10.85  16.71  16.71
            19.05  19.05
 17         -5.26   1.88   5.05   5.05   7.81   9.35   9.35  12.55  13.33  13.33
            14.60  17.47
 18         -3.70  -1.18   4.59   4.59   7.43   9.21   9.21  13.36  16.98  17.13
            17.13  17.30
 19         -6.13   5.82   5.82   5.82   8.36   8.36   8.36   9.03  13.46  14.02
            14.02  17.03
 Number of electrons calculated from density =    8.0000; Expected =    8.0000
 average of density, n =  0.029618
 r_s =    2.0050
 omega_plasma =   16.6009 [eV]


 calculating chi0 at frequencies [eV] :
  1    0.000000E+00    0.000000E+00
  2    0.000000E+00    1.670000E+01


--------------------------------------------------------------------------------
  q-point number  1        q = ( 0.000000, 0.000000, 0.000000) [r.l.u.]
--------------------------------------------------------------------------------
  chi0(G,G') at the    1 th omega   0.0000   0.0000 [eV]
       1       2       3       4       5       6       7       8       9
    1  -0.000   0.000  -0.000  -0.000   0.000   0.000  -0.000  -0.000   0.000
        0.000   0.000   0.000  -0.000  -0.000   0.000   0.000  -0.000  -0.000

    2   0.000 -13.149   0.000  -0.332  -0.000  -0.342   0.000  -0.340   0.000
       -0.000   0.000  -4.633   0.000  -0.326  -0.000  -0.325   0.000  -0.329

  chi0(G,G') at the    2 th omega   0.0000  16.7000 [eV]
       1       2       3       4       5       6       7       8       9
    1  -0.000   0.000  -0.000  -0.000   0.000   0.000  -0.000  -0.000   0.000
       -0.000   0.000   0.000  -0.000  -0.000   0.000   0.000  -0.000  -0.000

    2   0.000  -3.939   0.000  -0.002  -0.000  -0.005   0.000  -0.002  -0.000
       -0.000  -0.000  -1.047  -0.000  -0.101  -0.000  -0.097   0.000  -0.097

 For q-point:  0.000010 0.000020 0.000030
  dielectric constant =  15.1802
  dielectric constant without local fields =  16.9583

  Average fulfillment of the sum rule on Im[epsilon] for q-point    1 :     22.53  [%]
  Heads and wings of the symmetrical epsilon^-1(G,G') 

   Upper and lower wings at the    1 th omega   0.0000   0.0000 [eV]
       1       2       3       4       5       6       7       8       9
      0.066   0.006  -0.006  -0.017   0.017   0.017  -0.017  -0.006   0.006
      0.000   0.006   0.006  -0.017  -0.017   0.017   0.017  -0.006  -0.006
       1       2       3       4       5       6       7       8       9
      0.066   0.006  -0.006  -0.017   0.017   0.017  -0.017  -0.006   0.006
      0.000  -0.006  -0.006   0.017   0.017  -0.017  -0.017   0.006   0.006


   Upper and lower wings at the    2 th omega   0.0000  16.7000 [eV]
       1       2       3       4       5       6       7       8       9
      0.524   0.009  -0.009  -0.026   0.026   0.026  -0.026  -0.009   0.009
     -0.000   0.009   0.009  -0.026  -0.026   0.026   0.026  -0.009  -0.009
       1       2       3       4       5       6       7       8       9
      0.524   0.009  -0.009  -0.026   0.026   0.026  -0.026  -0.009   0.009
     -0.000  -0.009  -0.009   0.026   0.026  -0.026  -0.026   0.009   0.009




--------------------------------------------------------------------------------
  q-point number  2        q = ( 0.250000, 0.250000, 0.000000) [r.l.u.]
--------------------------------------------------------------------------------
  chi0(G,G') at the    1 th omega   0.0000   0.0000 [eV]
       1       2       3       4       5       6       7       8       9
    1 -11.233  -2.168  -0.356  -0.356  -2.168  -0.357  -2.167  -2.168  -0.356
       -0.000  -2.168   0.356  -0.356   2.168  -0.357   2.167  -2.168   0.356

    2  -2.168 -11.921   0.000  -0.585  -0.000  -0.594   0.000  -0.508   0.000
        2.168   0.000  -3.151   0.000   0.187  -0.000   0.187  -0.000  -0.301

  chi0(G,G') at the    2 th omega   0.0000  16.7000 [eV]
       1       2       3       4       5       6       7       8       9
    1  -1.386  -0.376   0.036   0.036  -0.375   0.036  -0.375  -0.375   0.037
       -0.000  -0.376  -0.036   0.036   0.375   0.036   0.375  -0.375  -0.037

    2  -0.376  -3.509  -0.000  -0.050  -0.000  -0.052  -0.000  -0.006  -0.000
        0.376  -0.000  -0.877  -0.000  -0.010  -0.000  -0.009  -0.000  -0.055

  Average fulfillment of the sum rule on Im[epsilon] for q-point    2 :     65.99  [%]


--------------------------------------------------------------------------------
  q-point number  3        q = ( 0.250000, 0.125000, 0.125000) [r.l.u.]
--------------------------------------------------------------------------------
  chi0(G,G') at the    1 th omega   0.0000   0.0000 [eV]
       1       2       3       4       5       6       7       8       9
    1  -7.458  -1.693   0.934  -1.282  -1.283   0.934  -1.693  -1.283  -1.282
        0.000  -1.693  -0.934  -1.282   1.283   0.934   1.693  -1.283   1.282

    2  -1.693 -11.866  -0.000  -0.774   0.000  -0.386   0.000  -0.781   0.000
        1.693  -0.000  -3.920  -0.000  -0.053   0.000   0.079   0.000  -0.057

  chi0(G,G') at the    2 th omega   0.0000  16.7000 [eV]
       1       2       3       4       5       6       7       8       9
    1  -0.739  -0.298   0.199  -0.128  -0.128   0.199  -0.298  -0.128  -0.128
        0.000  -0.298  -0.199  -0.128   0.128   0.199   0.298  -0.128   0.128

    2  -0.298  -3.567  -0.000  -0.024  -0.000  -0.019   0.000  -0.022   0.000
        0.298  -0.000  -0.984  -0.000  -0.039  -0.000  -0.024   0.000  -0.038

  Average fulfillment of the sum rule on Im[epsilon] for q-point    3 :     75.87  [%]


--------------------------------------------------------------------------------
  q-point number  4        q = ( 0.000000,-0.250000, 0.000000) [r.l.u.]
--------------------------------------------------------------------------------
  chi0(G,G') at the    1 th omega   0.0000   0.0000 [eV]
       1       2       3       4       5       6       7       8       9
    1  -8.742  -1.822  -1.017  -1.822  -1.018  -1.823  -1.017   2.274  -1.482
        0.000  -1.822   1.017  -1.822   1.018  -1.823   1.017   2.274   1.482

    2  -1.822 -12.648  -0.000  -0.744   0.000  -0.753   0.000   0.271  -0.000
        1.822  -0.000  -3.312   0.000   0.057   0.000   0.058   0.000  -0.026

  chi0(G,G') at the    2 th omega   0.0000  16.7000 [eV]
       1       2       3       4       5       6       7       8       9
    1  -1.075  -0.275  -0.059  -0.275  -0.059  -0.275  -0.059   0.358  -0.383
        0.000  -0.275   0.059  -0.275   0.059  -0.275   0.059   0.358   0.383

    2  -0.275  -3.729   0.000  -0.033   0.000  -0.038   0.000   0.010   0.000
        0.275  -0.000  -0.896   0.000  -0.055  -0.000  -0.054   0.000  -0.022

  Average fulfillment of the sum rule on Im[epsilon] for q-point    4 :     70.75  [%]


--------------------------------------------------------------------------------
  q-point number  5        q = ( 0.250000, 0.500000, 0.000000) [r.l.u.]
--------------------------------------------------------------------------------
  chi0(G,G') at the    1 th omega   0.0000   0.0000 [eV]
       1       2       3       4       5       6       7       8       9
    1 -16.046  -2.390  -1.732  -1.879  -2.540  -1.878  -2.539  -2.141   0.169
       -0.000  -2.390   1.732  -1.879   2.540  -1.878   2.539  -2.141  -0.169

    2  -2.390 -11.942  -0.000  -0.405   0.000  -0.414   0.000   0.015   0.000
        2.390   0.000  -1.878   0.000   0.133   0.000   0.132  -0.000  -0.343

  chi0(G,G') at the    2 th omega   0.0000  16.7000 [eV]
       1       2       3       4       5       6       7       8       9
    1  -3.042  -0.543  -0.471  -0.259  -0.562  -0.258  -0.562  -0.555   0.224
        0.000  -0.543   0.471  -0.259   0.562  -0.258   0.562  -0.555  -0.224

    2  -0.543  -3.522  -0.000  -0.134  -0.000  -0.138   0.000   0.039  -0.000
        0.543  -0.000  -0.538  -0.000   0.009  -0.000   0.009   0.000  -0.097

  Average fulfillment of the sum rule on Im[epsilon] for q-point    5 :     50.73  [%]


--------------------------------------------------------------------------------
  q-point number  6        q = ( 0.250000,-0.125000, 0.125000) [r.l.u.]
--------------------------------------------------------------------------------
  chi0(G,G') at the    1 th omega   0.0000   0.0000 [eV]
       1       2       3       4       5       6       7       8       9
    1 -12.571  -2.192   0.208  -2.232  -1.465  -1.464  -2.233   0.208  -2.192
        0.000  -2.192  -0.208  -2.232   1.465  -1.464   2.233   0.208   2.192

    2  -2.192 -11.067   0.000  -0.532   0.000  -0.621  -0.000  -0.457   0.000
        2.192   0.000  -3.226   0.000  -0.128   0.000   0.167   0.000   0.217

  chi0(G,G') at the    2 th omega   0.0000  16.7000 [eV]
       1       2       3       4       5       6       7       8       9
    1  -1.685  -0.443   0.178  -0.360  -0.190  -0.189  -0.361   0.178  -0.443
        0.000  -0.443  -0.178  -0.360   0.190  -0.189   0.361   0.178   0.443

    2  -0.443  -3.282   0.000  -0.002   0.000  -0.041   0.000  -0.037   0.000
        0.443  -0.000  -0.880  -0.000  -0.020   0.000  -0.005   0.000  -0.013

  Average fulfillment of the sum rule on Im[epsilon] for q-point    6 :     62.79  [%]


--------------------------------------------------------------------------------
  q-point number  7        q = ( 0.000000, 0.375000,-0.125000) [r.l.u.]
--------------------------------------------------------------------------------
  chi0(G,G') at the    1 th omega   0.0000   0.0000 [eV]
       1       2       3       4       5       6       7       8       9
    1 -14.156  -2.283  -2.214  -1.207  -2.372  -2.281  -2.214  -1.820   1.695
        0.000  -2.283   2.214  -1.207   2.372  -2.281   2.214  -1.820  -1.695

    2  -2.283 -13.941  -0.000   0.047  -0.000  -0.452   0.000  -0.112   0.000
        2.283   0.000  -2.158   0.000   0.175  -0.000   0.153  -0.000  -0.559

  chi0(G,G') at the    2 th omega   0.0000  16.7000 [eV]
       1       2       3       4       5       6       7       8       9
    1  -2.667  -0.386  -0.495  -0.131  -0.527  -0.386  -0.495  -0.536   0.418
        0.000  -0.386   0.495  -0.131   0.527  -0.386   0.495  -0.536  -0.418

    2  -0.386  -3.969  -0.000  -0.074  -0.000  -0.137  -0.000  -0.000  -0.000
        0.386   0.000  -0.608  -0.000  -0.002  -0.000   0.002  -0.000  -0.166

  Average fulfillment of the sum rule on Im[epsilon] for q-point    7 :     54.24  [%]


--------------------------------------------------------------------------------
  q-point number  8        q = (-0.125000,-0.125000, 0.000000) [r.l.u.]
--------------------------------------------------------------------------------
  chi0(G,G') at the    1 th omega   0.0000   0.0000 [eV]
       1       2       3       4       5       6       7       8       9
    1  -4.662   0.282  -1.320  -1.320   0.281  -1.320   0.281   0.281  -1.320
       -0.000   0.282   1.320  -1.320  -0.281  -1.320  -0.281   0.281   1.320

    2   0.282 -13.923   0.000  -0.473   0.000  -0.485  -0.000   0.720  -0.000
       -0.282  -0.000  -4.078   0.000  -0.528   0.000  -0.529   0.000  -0.324

  chi0(G,G') at the    2 th omega   0.0000  16.7000 [eV]
       1       2       3       4       5       6       7       8       9
    1  -0.381   0.083  -0.174  -0.174   0.083  -0.174   0.083   0.083  -0.174
       -0.000   0.083   0.174  -0.174  -0.083  -0.174  -0.083   0.083   0.174

    2   0.083  -4.054   0.000  -0.011   0.000  -0.017  -0.000   0.029  -0.000
       -0.083  -0.000  -1.005   0.000  -0.141  -0.000  -0.137   0.000  -0.086

  Average fulfillment of the sum rule on Im[epsilon] for q-point    8 :     81.55  [%]


--------------------------------------------------------------------------------
  q-point number  9        q = ( 0.375000, 0.375000, 0.000000) [r.l.u.]
--------------------------------------------------------------------------------
  chi0(G,G') at the    1 th omega   0.0000   0.0000 [eV]
       1       2       3       4       5       6       7       8       9
    1 -15.015  -2.400  -1.074  -1.076  -2.399  -1.076  -2.398  -2.399  -1.073
        0.000  -2.400   1.074  -1.076   2.399  -1.076   2.398  -2.399   1.073

    2  -2.400 -10.751   0.000  -0.490  -0.000  -0.497   0.000  -0.110   0.000
        2.400  -0.000  -2.401   0.000   0.238   0.000   0.238   0.000  -0.213

  chi0(G,G') at the    2 th omega   0.0000  16.7000 [eV]
       1       2       3       4       5       6       7       8       9
    1  -2.652  -0.532  -0.137  -0.137  -0.532  -0.137  -0.532  -0.532  -0.135
       -0.000  -0.532   0.137  -0.137   0.532  -0.137   0.532  -0.532   0.135

    2  -0.532  -3.149  -0.000  -0.081  -0.000  -0.083  -0.000   0.029  -0.000
        0.532   0.000  -0.688  -0.000  -0.001  -0.000  -0.001  -0.000  -0.027

  Average fulfillment of the sum rule on Im[epsilon] for q-point    9 :     52.27  [%]


--------------------------------------------------------------------------------
  q-point number 10        q = ( 0.250000, 0.375000,-0.125000) [r.l.u.]
--------------------------------------------------------------------------------
  chi0(G,G') at the    1 th omega   0.0000   0.0000 [eV]
       1       2       3       4       5       6       7       8       9
    1 -16.012  -2.441  -1.789  -0.855  -2.404  -1.792  -2.438  -2.405  -0.853
        0.000  -2.441   1.789  -0.855   2.404  -1.792   2.438  -2.405   0.853

    2  -2.441 -11.371  -0.000  -0.373  -0.000  -0.384  -0.000  -0.132   0.000
        2.441   0.000  -2.016   0.000   0.232  -0.000   0.092  -0.000  -0.135

  chi0(G,G') at the    2 th omega   0.0000  16.7000 [eV]
       1       2       3       4       5       6       7       8       9
    1  -2.856  -0.539  -0.344   0.012  -0.550  -0.344  -0.539  -0.550   0.015
        0.000  -0.539   0.344   0.012   0.550  -0.344   0.539  -0.550  -0.015

    2  -0.539  -3.334  -0.000  -0.098  -0.000  -0.103  -0.000   0.033  -0.000
        0.539  -0.000  -0.601  -0.000  -0.004  -0.000   0.013  -0.000  -0.051

  Average fulfillment of the sum rule on Im[epsilon] for q-point   10 :     51.28  [%]


[...]
          ecutwfn1     0.00000000E+00 Hartree
          ecutwfn2     0.00000000E+00 Hartree
          ecutwfn3     4.49928585E+00 Hartree
          ecutwfn4     4.49928585E+00 Hartree
           etotal1    -8.8469354906E+00
           etotal3     0.0000000000E+00
           etotal4     0.0000000000E+00
            fcart1    -2.9469876830E-31 -8.9690929482E-32  2.9469876830E-31
                       2.9469876830E-31  8.9690929482E-32 -2.9469876830E-31
            fcart3     0.0000000000E+00  0.0000000000E+00  0.0000000000E+00
                       0.0000000000E+00  0.0000000000E+00  0.0000000000E+00
            fcart4     0.0000000000E+00  0.0000000000E+00  0.0000000000E+00
                       0.0000000000E+00  0.0000000000E+00  0.0000000000E+00
-          fftalg         112
           getden1          0
           getden2         -1
           getden3          0
           getden4          0
           getkss1          0
           getkss2          0
           getkss3         -1
           getkss4         -2
           getscr1          0
           getscr2          0
           getscr3          0
           getscr4         -1
         icutcoul1          6
         icutcoul2          6
         icutcoul3          6
         icutcoul4          3
          inclvkb           0
             iscf1          5
             iscf2         -2
             iscf3          5
             iscf4          5
           istwfk2       0    0    0    0    0    0    0    0    0    0
                         0    0    0    1    0    0    0    1    1
           istwfk3       0    0    0    0    0    0    0    0    0    0
                         0    0    0    1    0    0    0    1    1
           istwfk4       0    0    0    0    0    0    0    0    0    0
                         0    0    0    1    0    0    0    1    1
           jdtset        1    2    3    4
              kpt1    -1.25000000E-01 -2.50000000E-01  0.00000000E+00
                      -1.25000000E-01  5.00000000E-01  0.00000000E+00
                      -2.50000000E-01 -3.75000000E-01  0.00000000E+00
                      -1.25000000E-01 -3.75000000E-01  1.25000000E-01
                      -1.25000000E-01  2.50000000E-01  0.00000000E+00
                      -2.50000000E-01  3.75000000E-01  0.00000000E+00
                      -3.75000000E-01  5.00000000E-01  0.00000000E+00
                      -2.50000000E-01  5.00000000E-01  1.25000000E-01
                      -1.25000000E-01  0.00000000E+00  0.00000000E+00
                      -3.75000000E-01  0.00000000E+00  0.00000000E+00
              kpt2    -1.25000000E-01 -1.25000000E-01  0.00000000E+00
                      -1.25000000E-01 -3.75000000E-01  0.00000000E+00
                      -2.50000000E-01 -2.50000000E-01  0.00000000E+00
                      -1.25000000E-01 -2.50000000E-01  1.25000000E-01
                      -1.25000000E-01  3.75000000E-01  0.00000000E+00
                      -2.50000000E-01  5.00000000E-01  0.00000000E+00
                      -1.25000000E-01  5.00000000E-01  1.25000000E-01
                      -3.75000000E-01 -3.75000000E-01  0.00000000E+00
                      -2.50000000E-01 -3.75000000E-01  1.25000000E-01
                      -1.25000000E-01 -3.75000000E-01  2.50000000E-01
                      -1.25000000E-01  1.25000000E-01  0.00000000E+00
                      -2.50000000E-01  2.50000000E-01  0.00000000E+00
                      -3.75000000E-01  3.75000000E-01  0.00000000E+00
                       5.00000000E-01  5.00000000E-01  0.00000000E+00
                      -3.75000000E-01  5.00000000E-01  1.25000000E-01
                      -2.50000000E-01  5.00000000E-01  2.50000000E-01
                      -2.50000000E-01  0.00000000E+00  0.00000000E+00
                       5.00000000E-01  0.00000000E+00  0.00000000E+00
                       0.00000000E+00  0.00000000E+00  0.00000000E+00
              kpt3    -1.25000000E-01 -1.25000000E-01  0.00000000E+00
                      -1.25000000E-01 -3.75000000E-01  0.00000000E+00
                      -2.50000000E-01 -2.50000000E-01  0.00000000E+00
                      -1.25000000E-01 -2.50000000E-01  1.25000000E-01
                      -1.25000000E-01  3.75000000E-01  0.00000000E+00
                      -2.50000000E-01  5.00000000E-01  0.00000000E+00
                      -1.25000000E-01  5.00000000E-01  1.25000000E-01
                      -3.75000000E-01 -3.75000000E-01  0.00000000E+00
                      -2.50000000E-01 -3.75000000E-01  1.25000000E-01
                      -1.25000000E-01 -3.75000000E-01  2.50000000E-01
                      -1.25000000E-01  1.25000000E-01  0.00000000E+00
                      -2.50000000E-01  2.50000000E-01  0.00000000E+00
                      -3.75000000E-01  3.75000000E-01  0.00000000E+00
                       5.00000000E-01  5.00000000E-01  0.00000000E+00
                      -3.75000000E-01  5.00000000E-01  1.25000000E-01
                      -2.50000000E-01  5.00000000E-01  2.50000000E-01
                      -2.50000000E-01  0.00000000E+00  0.00000000E+00
                       5.00000000E-01  0.00000000E+00  0.00000000E+00
                       0.00000000E+00  0.00000000E+00  0.00000000E+00
              kpt4    -1.25000000E-01 -1.25000000E-01  0.00000000E+00
                      -1.25000000E-01 -3.75000000E-01  0.00000000E+00
                      -2.50000000E-01 -2.50000000E-01  0.00000000E+00
                      -1.25000000E-01 -2.50000000E-01  1.25000000E-01
                      -1.25000000E-01  3.75000000E-01  0.00000000E+00
                      -2.50000000E-01  5.00000000E-01  0.00000000E+00
                      -1.25000000E-01  5.00000000E-01  1.25000000E-01
                      -3.75000000E-01 -3.75000000E-01  0.00000000E+00
                      -2.50000000E-01 -3.75000000E-01  1.25000000E-01
                      -1.25000000E-01 -3.75000000E-01  2.50000000E-01
                      -1.25000000E-01  1.25000000E-01  0.00000000E+00
                      -2.50000000E-01  2.50000000E-01  0.00000000E+00
                      -3.75000000E-01  3.75000000E-01  0.00000000E+00
                       5.00000000E-01  5.00000000E-01  0.00000000E+00
                      -3.75000000E-01  5.00000000E-01  1.25000000E-01
                      -2.50000000E-01  5.00000000E-01  2.50000000E-01
                      -2.50000000E-01  0.00000000E+00  0.00000000E+00
                       5.00000000E-01  0.00000000E+00  0.00000000E+00
                       0.00000000E+00  0.00000000E+00  0.00000000E+00
            kptgw4     0.00000000E+00  0.00000000E+00  0.00000000E+00
         kptrlatt        4   -4    4     -4    4    4     -4   -4    4
          kptrlen      4.10448516E+01
          kssform1          1
          kssform2          3
          kssform3          1
          kssform4          1
P           mkmem1          5
P           mkmem2         10
P           mkmem3         10
P           mkmem4         10
            natom           2
            nband1          5
            nband2         17
            nband3         12
            nband4         12
         nbandkss1          0
         nbandkss2         12
         nbandkss3          0
         nbandkss4          0
           nbdbuf1          0
           nbdbuf2          5
           nbdbuf3          0
           nbdbuf4          0
           ndtset           4
            ngfft          15      15      15
             nkpt1         10
             nkpt2         19
             nkpt3         19
             nkpt4         19
           nkptgw1          0
           nkptgw2          0
           nkptgw3          0
           nkptgw4          1
           npweps1          0
           npweps2          0
           npweps3         65
           npweps4          0
          npwsigx1          0
          npwsigx2          0
          npwsigx3          0
          npwsigx4         27
           npwwfn1          0
           npwwfn2          0
           npwwfn3        137
           npwwfn4        137
           nsheps1          0
           nsheps2          0
           nsheps3          7
           nsheps4          0
          nshsigx1          0
          nshsigx2          0
          nshsigx3          0
          nshsigx4          4
            nstep         100
             nsym          48
           ntypat           1
              occ1     2.000000  2.000000  2.000000  2.000000  0.000000
              occ3     2.000000  2.000000  2.000000  2.000000  0.000000  0.000000
                       0.000000  0.000000  0.000000  0.000000  0.000000  0.000000
              occ4     2.000000  2.000000  2.000000  2.000000  0.000000  0.000000
                       0.000000  0.000000  0.000000  0.000000  0.000000  0.000000
        optdriver1          0
        optdriver2          0
        optdriver3          3
        optdriver4          4
        optforces           1
           ppmfrq1     0.00000000E+00 Hartree
           ppmfrq2     0.00000000E+00 Hartree
           ppmfrq3     6.13713734E-01 Hartree
           ppmfrq4     0.00000000E+00 Hartree
            rprim      0.0000000000E+00  5.0000000000E-01  5.0000000000E-01
                       5.0000000000E-01  0.0000000000E+00  5.0000000000E-01
                       5.0000000000E-01  5.0000000000E-01  0.0000000000E+00
           shiftk1     5.00000000E-01  5.00000000E-01  5.00000000E-01
           shiftk2     0.00000000E+00  0.00000000E+00  0.00000000E+00
           shiftk3     0.00000000E+00  0.00000000E+00  0.00000000E+00
           shiftk4     0.00000000E+00  0.00000000E+00  0.00000000E+00
          spgroup         227
           strten1     2.0560128402E-04  2.0560128402E-04  2.0560128402E-04
                       0.0000000000E+00  0.0000000000E+00  0.0000000000E+00
           strten3     0.0000000000E+00  0.0000000000E+00  0.0000000000E+00
                       0.0000000000E+00  0.0000000000E+00  0.0000000000E+00
           strten4     0.0000000000E+00  0.0000000000E+00  0.0000000000E+00
                       0.0000000000E+00  0.0000000000E+00  0.0000000000E+00
           symrel      1  0  0   0  1  0   0  0  1      -1  0  0   0 -1  0   0  0 -1
                       0 -1  1   0 -1  0   1 -1  0       0  1 -1   0  1  0  -1  1  0
                      -1  0  0  -1  0  1  -1  1  0       1  0  0   1  0 -1   1 -1  0
                       0  1 -1   1  0 -1   0  0 -1       0 -1  1  -1  0  1   0  0  1
                      -1  0  0  -1  1  0  -1  0  1       1  0  0   1 -1  0   1  0 -1
                       0 -1  1   1 -1  0   0 -1  0       0  1 -1  -1  1  0   0  1  0
                       1  0  0   0  0  1   0  1  0      -1  0  0   0  0 -1   0 -1  0
                       0  1 -1   0  0 -1   1  0 -1       0 -1  1   0  0  1  -1  0  1
                      -1  0  1  -1  1  0  -1  0  0       1  0 -1   1 -1  0   1  0  0
                       0 -1  0   1 -1  0   0 -1  1       0  1  0  -1  1  0   0  1 -1
                       1  0 -1   0  0 -1   0  1 -1      -1  0  1   0  0  1   0 -1  1
                       0  1  0   0  0  1   1  0  0       0 -1  0   0  0 -1  -1  0  0
                       1  0 -1   0  1 -1   0  0 -1      -1  0  1   0 -1  1   0  0  1
                       0 -1  0   0 -1  1   1 -1  0       0  1  0   0  1 -1  -1  1  0
                      -1  0  1  -1  0  0  -1  1  0       1  0 -1   1  0  0   1 -1  0
                       0  1  0   1  0  0   0  0  1       0 -1  0  -1  0  0   0  0 -1
                       0  0 -1   0  1 -1   1  0 -1       0  0  1   0 -1  1  -1  0  1
                       1 -1  0   0 -1  1   0 -1  0      -1  1  0   0  1 -1   0  1  0
                       0  0  1   1  0  0   0  1  0       0  0 -1  -1  0  0   0 -1  0
                      -1  1  0  -1  0  0  -1  0  1       1 -1  0   1  0  0   1  0 -1
                       0  0  1   0  1  0   1  0  0       0  0 -1   0 -1  0  -1  0  0
                       1 -1  0   0 -1  0   0 -1  1      -1  1  0   0  1  0   0  1 -1
                       0  0 -1   1  0 -1   0  1 -1       0  0  1  -1  0  1   0 -1  1
                      -1  1  0  -1  0  1  -1  0  0       1 -1  0   1  0 -1   1  0  0
            tnons      0.0000000  0.0000000  0.0000000     0.2500000  0.2500000  0.2500000
                       0.0000000  0.0000000  0.0000000     0.2500000  0.2500000  0.2500000
                       0.0000000  0.0000000  0.0000000     0.2500000  0.2500000  0.2500000
                       0.0000000  0.0000000  0.0000000     0.2500000  0.2500000  0.2500000
                       0.0000000  0.0000000  0.0000000     0.2500000  0.2500000  0.2500000
                       0.0000000  0.0000000  0.0000000     0.2500000  0.2500000  0.2500000
                       0.0000000  0.0000000  0.0000000     0.2500000  0.2500000  0.2500000
                       0.0000000  0.0000000  0.0000000     0.2500000  0.2500000  0.2500000
                       0.0000000  0.0000000  0.0000000     0.2500000  0.2500000  0.2500000
                       0.0000000  0.0000000  0.0000000     0.2500000  0.2500000  0.2500000
                       0.0000000  0.0000000  0.0000000     0.2500000  0.2500000  0.2500000
                       0.0000000  0.0000000  0.0000000     0.2500000  0.2500000  0.2500000
                       0.0000000  0.0000000  0.0000000     0.2500000  0.2500000  0.2500000
                       0.0000000  0.0000000  0.0000000     0.2500000  0.2500000  0.2500000
                       0.0000000  0.0000000  0.0000000     0.2500000  0.2500000  0.2500000
                       0.0000000  0.0000000  0.0000000     0.2500000  0.2500000  0.2500000
                       0.0000000  0.0000000  0.0000000     0.2500000  0.2500000  0.2500000
                       0.0000000  0.0000000  0.0000000     0.2500000  0.2500000  0.2500000
                       0.0000000  0.0000000  0.0000000     0.2500000  0.2500000  0.2500000
                       0.0000000  0.0000000  0.0000000     0.2500000  0.2500000  0.2500000
                       0.0000000  0.0000000  0.0000000     0.2500000  0.2500000  0.2500000
                       0.0000000  0.0000000  0.0000000     0.2500000  0.2500000  0.2500000
                       0.0000000  0.0000000  0.0000000     0.2500000  0.2500000  0.2500000
                       0.0000000  0.0000000  0.0000000     0.2500000  0.2500000  0.2500000
           tolwfr      1.00000000E-10
            typat      1  1
              wtk1       0.09375    0.09375    0.09375    0.18750    0.09375    0.09375
                         0.09375    0.18750    0.03125    0.03125
              wtk2       0.02344    0.09375    0.02344    0.09375    0.09375    0.09375
                         0.09375    0.02344    0.09375    0.09375    0.04688    0.04688
                         0.04688    0.01172    0.04688    0.02344    0.03125    0.01563
                         0.00391
              wtk3       0.02344    0.09375    0.02344    0.09375    0.09375    0.09375
                         0.09375    0.02344    0.09375    0.09375    0.04688    0.04688
                         0.04688    0.01172    0.04688    0.02344    0.03125    0.01563
                         0.00391
              wtk4       0.02344    0.09375    0.02344    0.09375    0.09375    0.09375
                         0.09375    0.02344    0.09375    0.09375    0.04688    0.04688
                         0.04688    0.01172    0.04688    0.02344    0.03125    0.01563
                         0.00391
           xangst      0.0000000000E+00  0.0000000000E+00  0.0000000000E+00
                       1.3575000000E+00  1.3575000000E+00  1.3575000000E+00
            xcart      0.0000000000E+00  0.0000000000E+00  0.0000000000E+00
                       2.5653032254E+00  2.5653032254E+00  2.5653032254E+00
             xred      0.0000000000E+00  0.0000000000E+00  0.0000000000E+00
                       2.5000000000E-01  2.5000000000E-01  2.5000000000E-01
            znucl       14.00000

================================================================================


- Timing analysis has been suppressed with timopt=0



================================================================================

 Suggested references for the acknowledgment of ABINIT usage.

 The users of ABINIT have little formal obligations with respect to the ABINIT group
 (those specified in the GNU General Public License, http://www.gnu.org/copyleft/gpl.txt).
 However, it is common practice in the scientific literature,
 to acknowledge the efforts of people that have made the research possible.
 In this spirit, please find below suggested citations of work written by ABINIT developers,
 corresponding to implementations inside of ABINIT that you have used in the present run.
 Note also that it will be of great value to readers of publications presenting these results,
 to read papers enabling them to understand the theoretical formalism and details
 of the ABINIT implementation.
 For information on why they are suggested, see also http://www.abinit.org/about/?text=acknowledgments.

 [1] ABINIT : First-principles approach of materials and nanosystem properties.
 X. Gonze, B. Amadon, P.-M. Anglade, J.-M. Beuken, F. Bottin, P. Boulanger, F. Bruneval,
 D. Caliste, R. Caracas, M. Cote, T. Deutsch, L. Genovese, Ph. Ghosez, M. Giantomassi
 S. Goedecker, D.R. Hamann, P. Hermet, F. Jollet, G. Jomard, S. Leroux, M. Mancini, S. Mazevet,
 M.J.T. Oliveira, G. Onida, Y. Pouillon, T. Rangel, G.-M. Rignanese, D. Sangalli, R. Shaltaf,
 M. Torrent, M.J. Verstraete, G. Zerah, J.W. Zwanziger
 Computer Phys. Comm. 180, 2582-2615 (2009).
 Comment : the third generic paper describing the ABINIT project.
 Note that a version of this paper, that is not formatted for Computer Phys. Comm. 
 is available at http://www.abinit.org/about/ABINIT_CPC_v10.pdf .
 The licence allows the authors to put it on the Web.

 [2] A brief introduction to the ABINIT software package.
 X. Gonze, G.-M. Rignanese, M. Verstraete, J.-M. Beuken, Y. Pouillon, R. Caracas, F. Jollet,
 M. Torrent, G. Zerah, M. Mikami, Ph. Ghosez, M. Veithen, J.-Y. Raty, V. Olevano, F. Bruneval,
 L. Reining, R. Godby, G. Onida, D.R. Hamann, and D.C. Allan.
 Z. Kristallogr. 220, 558-562 (2005).
 Comment : the second generic paper describing the ABINIT project. Note that this paper
 should be cited especially if you are using the GW part of ABINIT, as several authors
 of this part are not in the list of authors of the first or third paper.
 The .pdf of the latter paper is available at http://www.abinit.org/about/zfk_0505-06_558-562.pdf.
 Note that it should not redistributed (Copyright by Oldenburg Wissenshaftverlag,
 the licence allows the authors to put it on the Web).


 And optionally :

 [3] First-principles computation of material properties : the ABINIT software project. 
 X. Gonze, J.-M. Beuken, R. Caracas, F. Detraux, M. Fuchs, G.-M. Rignanese, L. Sindic,
 M. Verstraete, G. Zerah, F. Jollet, M. Torrent, A. Roy, M. Mikami, Ph. Ghosez, J.-Y. Raty, D.C. Allan.
 Computational Materials Science 25, 478-492 (2002). http://dx.doi.org/10.1016/S0927-0256(02)00325-7
 Comment : the original paper describing the ABINIT project.

 [4] Fast radix 2, 3, 4 and 5 kernels for Fast Fourier Transformations
 on computers with overlapping multiply-add instructions.
 S. Goedecker, SIAM J. on Scientific Computing 18, 1605 (1997).

 [5] Towards a potential-based conjugate gradient algorithm for order-N self-consistent
 total energy calculations.
 X. Gonze, Phys. Rev. B 54, 4383 (1996).
 Comment : The potential-based conjugate-gradient algorithm, used when iscf=5, is not published.
 However, many elements of this algorithm have been explained in the paper above.
-
- Proc.   0 individual time (sec): cpu=         48.2  wall=         48.3

================================================================================

 Calculation completed.
.Delivered    0 WARNINGs and   0 COMMENTs to log file.
+Overall time at end (sec) : cpu=         96.4  wall=         96.5
