
.Version 7.9.3 of ABINIT 
.(MPI version, prepared for a x86_64_linux_gnu4.7 computer) 

.Copyright (C) 1998-2014 ABINIT group . 
 ABINIT comes with ABSOLUTELY NO WARRANTY.
 It is free software, and you are welcome to redistribute it
 under certain conditions (GNU General Public License,
 see ~abinit/COPYING or http://www.gnu.org/copyleft/gpl.txt).

 ABINIT is a project of the Universite Catholique de Louvain,
 Corning Inc. and other collaborators, see ~abinit/doc/developers/contributors.txt .
 Please read ~abinit/doc/users/acknowledgments.html for suggested
 acknowledgments of the ABINIT effort.
 For more information, see http://www.abinit.org .

.Starting date : Sat 30 Aug 2014.
- ( at 22h39 )
  
- input  file    -> t03.in
- output file    -> t03.out
- root for input  files -> t03i
- root for output files -> t03o


 DATASET    1 : space group P1 (#  1); Bravais aP (primitive triclinic)
================================================================================
 Values of the parameters that define the memory need for DATASET  1.
   intxc =         1  ionmov =         0    iscf =         7 xclevel =         1
  lmnmax =         3   lnmax =         3   mband =         4  mffmem =         1
P  mgfft =        96   mkmem =         1 mpssoang=         2     mpw =     56619
  mqgrid =      4765   natom =         2    nfft =    884736    nkpt =         1
  nloalg =         4  nspden =         1 nspinor =         1  nsppol =         1
    nsym =         1  n1xccc =         0  ntypat =         1  occopt =         0
================================================================================
P This job should need less than                     239.648 Mbytes of memory.
P Max. in main chain + fourwf.f
P            6 blocks of mpw  integer numbers, for      1.296 Mbytes.
P           49 blocks of mpw  real(dp)  numbers, for     21.166 Mbytes.
P           32 blocks of nfft real(dp)  numbers, for    216.000 Mbytes.
P              Additional     real(dp)  numbers, for      0.948 Mbytes.
P              With residue estimated to be             0.237 Mbytes.
P
P Comparison of the memory needs of different chains
P Main chain + fourwf.f               239.648 Mbytes.
P Main chain + nonlop.f + opernl.f    212.427 Mbytes.
P XC chain                            214.255 Mbytes.
P mkrho chain                         188.402 Mbytes.
P fourdp chain                        173.755 Mbytes.
- parallel k-point chain              173.473 Mbytes.
P newvtr chain                        186.972 Mbytes.
  Rough estimation (10% accuracy) of disk space for files :
_ WF disk file :      3.458 Mbytes ; DEN or POT disk file :      6.752 Mbytes.
================================================================================


 DATASET    2 : space group P1 (#  1); Bravais aP (primitive triclinic)
================================================================================
 Values of the parameters that define the memory need for DATASET  2.
   intxc =         1  ionmov =         0    iscf =         7 xclevel =         1
  lmnmax =         3   lnmax =         3   mband =         4  mffmem =         1
P  mgfft =        96   mkmem =         1 mpssoang=         2     mpw =     56619
  mqgrid =      4765   natom =         2    nfft =    884736    nkpt =         1
  nloalg =         4  nspden =         1 nspinor =         1  nsppol =         1
    nsym =         1  n1xccc =         0  ntypat =         1  occopt =         0
================================================================================
P This job should need less than                     239.648 Mbytes of memory.
P Max. in main chain + fourwf.f
P            6 blocks of mpw  integer numbers, for      1.296 Mbytes.
P           49 blocks of mpw  real(dp)  numbers, for     21.166 Mbytes.
P           32 blocks of nfft real(dp)  numbers, for    216.000 Mbytes.
P              Additional     real(dp)  numbers, for      0.948 Mbytes.
P              With residue estimated to be             0.237 Mbytes.
P
P Comparison of the memory needs of different chains
P Main chain + fourwf.f               239.648 Mbytes.
P Main chain + nonlop.f + opernl.f    212.427 Mbytes.
P XC chain                            214.255 Mbytes.
P mkrho chain                         188.402 Mbytes.
P fourdp chain                        173.755 Mbytes.
- parallel k-point chain              173.473 Mbytes.
P newvtr chain                        186.972 Mbytes.
  Rough estimation (10% accuracy) of disk space for files :
_ WF disk file :      3.458 Mbytes ; DEN or POT disk file :      6.752 Mbytes.
================================================================================


 DATASET    3 : space group P1 (#  1); Bravais aP (primitive triclinic)
================================================================================
 Values of the parameters that define the memory need for DATASET  3.
   intxc =         1  ionmov =         0    iscf =         7 xclevel =         1
  lmnmax =         3   lnmax =         3   mband =         4  mffmem =         1
P  mgfft =        96   mkmem =         1 mpssoang=         2     mpw =     56619
  mqgrid =      4765   natom =         2    nfft =    884736    nkpt =         1
  nloalg =         4  nspden =         1 nspinor =         1  nsppol =         1
    nsym =         1  n1xccc =         0  ntypat =         1  occopt =         0
================================================================================
P This job should need less than                     239.648 Mbytes of memory.
P Max. in main chain + fourwf.f
P            6 blocks of mpw  integer numbers, for      1.296 Mbytes.
P           49 blocks of mpw  real(dp)  numbers, for     21.166 Mbytes.
P           32 blocks of nfft real(dp)  numbers, for    216.000 Mbytes.
P              Additional     real(dp)  numbers, for      0.948 Mbytes.
P              With residue estimated to be             0.237 Mbytes.
P
P Comparison of the memory needs of different chains
P Main chain + fourwf.f               239.648 Mbytes.
P Main chain + nonlop.f + opernl.f    212.427 Mbytes.
P XC chain                            214.255 Mbytes.
P mkrho chain                         188.402 Mbytes.
P fourdp chain                        173.755 Mbytes.
- parallel k-point chain              173.473 Mbytes.
P newvtr chain                        186.972 Mbytes.
  Rough estimation (10% accuracy) of disk space for files :
_ WF disk file :      3.458 Mbytes ; DEN or POT disk file :      6.752 Mbytes.
================================================================================

--------------------------------------------------------------------------------
------------- Echo of variables that govern the present computation ------------
--------------------------------------------------------------------------------
-
- outvars: echo of selected default values                                      
-   accesswff0 =  0 , fftalg0 =112 , wfoptalg0 =  0
-
- outvars: echo of global parameters not present in the input file              
-  max_nthreads =    0
-
 -outvars: echo values of preprocessed input variables --------
            acell      1.0000000000E+01  1.0000000000E+01  1.0000000000E+01 Bohr
              amu      2.80855000E+01
           densty      1.20000000E+00
           diemac      1.20000000E+01
             ecut      1.12000000E+02 Hartree
-          fftalg         112
         fftcache1         16
         fftcache2          1
         fftcache3        128
            intxc           1
           istwfk        1
           jdtset        1    2    3
           kptopt           0
P           mkmem           1
            natom           2
            nband           4
           ndtset           3
            ngfft          96      96      96
             nkpt           1
            nline           2
            nstep           2
             nsym           1
           ntypat           1
              occ      2.000000  2.000000  2.000000  2.000000
           occopt           0
           prtden           0
           prtvol          10
            prtwf           0
          spgroup           1
           timopt          -1
           tolwfr      1.00000000E-22
            typat      1  1
           xangst      0.0000000000E+00  0.0000000000E+00 -7.9376581289E-01
                       0.0000000000E+00  0.0000000000E+00  7.9376581289E-01
            xcart      0.0000000000E+00  0.0000000000E+00 -1.5000000000E+00
                       0.0000000000E+00  0.0000000000E+00  1.5000000000E+00
             xred      0.0000000000E+00  0.0000000000E+00 -1.5000000000E-01
                       0.0000000000E+00  0.0000000000E+00  1.5000000000E-01
            znucl       14.00000

================================================================================

 chkinp: Checking input parameters for consistency, jdtset=   1.

 chkinp: Checking input parameters for consistency, jdtset=   2.

 chkinp: Checking input parameters for consistency, jdtset=   3.

================================================================================
== DATASET  1 ==================================================================
-   nproc =    1

 Exchange-correlation functional for the present dataset will be:
  LDA: new Teter (4/93) with spin-polarized option - ixc=1
 Citation for XC functional:
  S. Goedecker, M. Teter, J. Huetter, PRB 54, 1703 (1996)

 Real(R)+Recip(G) space primitive vectors, cartesian coordinates (Bohr,Bohr^-1):
 R(1)= 10.0000000  0.0000000  0.0000000  G(1)=  0.1000000  0.0000000  0.0000000
 R(2)=  0.0000000 10.0000000  0.0000000  G(2)=  0.0000000  0.1000000  0.0000000
 R(3)=  0.0000000  0.0000000 10.0000000  G(3)=  0.0000000  0.0000000  0.1000000
 Unit cell volume ucvol=  1.0000000E+03 bohr^3
 Angles (23,13,12)=  9.00000000E+01  9.00000000E+01  9.00000000E+01 degrees

 getcut: wavevector=  0.0000  0.0000  0.0000  ngfft=  96  96  96
         ecut(hartree)=    112.000   => boxcut(ratio)=   2.01510

--- Pseudopotential description ------------------------------------------------
- pspini: atom type   1  psp file is /home/gonze/ABINIT/ABINITv7.9.3/trunk/7.9.3-private/tests/Psps_for_tests/14si.pspgth
- pspatm: opening atomic psp file    /home/gonze/ABINIT/ABINITv7.9.3/trunk/7.9.3-private/tests/Psps_for_tests/14si.pspgth
- Goedecker-Teter-Hutter  Fri May 31 17:22:04 EDT 1996
- 14.00000   4.00000    960531                znucl, zion, pspdat
    2    1    1    0      2001   0.00000      pspcod,pspxc,lmax,lloc,mmax,r2well
 rloc=   0.4400000
  cc1=  -6.9136286; cc2=   0.0000000; cc3=   0.0000000; cc4=   0.0000000
  rrs=   0.4243338; h1s=   3.2081318; h2s=   2.5888808
  rrp=   0.4853587; h1p=   2.6562230
-  Local part computed in reciprocal space.

 pspatm : COMMENT -
  the projectors are not normalized,
  so that the KB energies are not consistent with 
  definition in PRB44, 8503 (1991). 
  However, this does not influence the results obtained hereafter.
 pspatm: epsatm=   -4.40972757
         --- l  ekb(1:nproj) -->
             0    0.868920    0.186986
             1    0.169080
 pspatm: atomic psp has been read  and splines computed

  -7.05556411E+01                                ecore*ucvol(ha*bohr**3)
--------------------------------------------------------------------------------

P newkpt: treating      4 bands with npw=   56619 for ikpt=   1 by node    0

_setup2: Arith. and geom. avg. npw (full set) are   56619.000   56619.000

================================================================================

     iter   Etot(hartree)      deltaE(h)  residm     vres2

 ETOT  1  -6.3244979278603    -6.324E+00 3.937E-01 2.158E+03

 prteigrs : about to open file t03o_DS1_EIG
 Fermi (or HOMO) energy (hartree) =   0.04660   Average Vxc (hartree)=  -0.20138
 Eigenvalues (hartree) for nkpt=   1  k points:
 kpt#   1, nband=  4, wtk=  1.00000, kpt=  0.0000  0.0000  0.0000 (reduced coord)
  -0.63918  -0.15402  -0.07199   0.04660

 ETOT  2  -7.3321908678596    -1.008E+00 7.579E-03 5.704E+03

 prteigrs : about to open file t03o_DS1_EIG
 Fermi (or HOMO) energy (hartree) =  -0.19977   Average Vxc (hartree)=  -0.15793
 Eigenvalues (hartree) for nkpt=   1  k points:
 kpt#   1, nband=  4, wtk=  1.00000, kpt=  0.0000  0.0000  0.0000 (reduced coord)
  -0.58969  -0.27608  -0.25391  -0.19977

 Cartesian components of stress tensor (hartree/bohr^3)
  sigma(1 1)= -6.24001667E-04  sigma(3 2)=  3.03079632E-05
  sigma(2 2)= -6.08499127E-04  sigma(3 1)=  1.18729924E-05
  sigma(3 3)= -1.99565740E-03  sigma(2 1)=  1.56412476E-05


 scprqt:  WARNING -
  nstep=    2 was not enough SCF cycles to converge;
  maximum residual=  7.579E-03 exceeds tolwfr=  1.000E-22

================================================================================

 ----iterations are completed or convergence reached----

 Mean square residual over all n,k,spin=   5.1172E-03; max=  7.5792E-03
   0.0000  0.0000  0.0000    1  7.57919E-03 kpt; spin; max resid(k); each band:
  4.87E-03 7.58E-03 2.91E-03 5.11E-03
 reduced coordinates (array xred) for    2 atoms
       0.000000000000      0.000000000000     -0.150000000000
       0.000000000000      0.000000000000      0.150000000000
 rms dE/dt=  3.6187E+00; max dE/dt=  6.3116E+00; dE/dt below (all hartree)
    1      -0.066101226112     -0.062164650794      6.311563486279
    2       0.016767334322      0.124864022267     -6.221878129010

 cartesian coordinates (angstrom) at end:
    1      0.00000000000000     0.00000000000000    -0.79376581288500
    2      0.00000000000000     0.00000000000000     0.79376581288500

 cartesian forces (hartree/bohr) at end:
    1      0.00414342802169     0.00935143365305    -0.62667208076446
    2     -0.00414342802169    -0.00935143365305     0.62667208076446
 frms,max,avg= 3.6185748E-01 6.2667208E-01   2.467E-03 -3.135E-03 -4.484E-03 h/b

 cartesian forces (eV/Angstrom) at end:
    1      0.21306361756400     0.48087001224481   -32.22477133787291
    2     -0.21306361756400    -0.48087001224481    32.22477133787291
 frms,max,avg= 1.8607458E+01 3.2224771E+01   1.268E-01 -1.612E-01 -2.306E-01 e/A
 length scales= 10.000000000000 10.000000000000 10.000000000000 bohr
              =  5.291772085900  5.291772085900  5.291772085900 angstroms
 prteigrs : about to open file t03o_DS1_EIG
 Fermi (or HOMO) energy (hartree) =  -0.19977   Average Vxc (hartree)=  -0.15793
 Eigenvalues (hartree) for nkpt=   1  k points:
 kpt#   1, nband=  4, wtk=  1.00000, kpt=  0.0000  0.0000  0.0000 (reduced coord)
  -0.58969  -0.27608  -0.25391  -0.19977
 Total charge density [el/Bohr^3]
,     Maximum=    2.3441E-01  at reduced coord.    0.0104    0.0104    0.0000
,Next maximum=    2.3440E-01  at reduced coord.    0.0104    0.0000    0.0000
,     Minimum=    1.0735E-05  at reduced coord.    0.4583    0.5000    0.1458
,Next minimum=    1.0765E-05  at reduced coord.    0.4583    0.5000    0.1354
,  Integrated=    8.0000E+00

--------------------------------------------------------------------------------
 Components of total free energy (in Hartree) :

    Kinetic energy  =  3.73170664283083E+00
    Hartree energy  =  3.60319739985789E+00
    XC energy       = -2.42834547823940E+00
    Ewald energy    = -3.40312010772530E+00
    PspCore energy  = -7.05556410748340E-02
    Loc. psp. energy= -1.15183489403111E+01
    NL   psp  energy=  2.75327525680236E+00
    >>>>>>>>> Etotal= -7.33219086785959E+00

 Other information on the energy :
    Total energy(eV)= -1.99519060240114E+02 ; Band energy (Ha)=  -2.6389157074E+00
--------------------------------------------------------------------------------

          ===> extra information on forces <===
 ewald contribution to reduced grads
    1      -0.000000000000      0.000000000000     15.207136974335
    2       0.000000000000     -0.000000000000    -15.207136974335
 nonlocal contribution to red. grads
    1       1.226845900662      0.416222751603      6.622014661560
    2      -1.778477980909     -0.633485727984     -6.759685378942
 local psp contribution to red. grads
    1      -1.240798480978     -0.495385718578    -16.936513169717
    2       1.778112664997      0.538473786082     15.878061580630
 residual contribution to red. grads
    1      -0.052148645796      0.016998316181      1.418925020101
    2       0.017132650235      0.219875964169     -0.133117356364

 Cartesian components of stress tensor (hartree/bohr^3)
  sigma(1 1)= -6.24001667E-04  sigma(3 2)=  3.03079632E-05
  sigma(2 2)= -6.08499127E-04  sigma(3 1)=  1.18729924E-05
  sigma(3 3)= -1.99565740E-03  sigma(2 1)=  1.56412476E-05

-Cartesian components of stress tensor (GPa)         [Pressure=  3.1659E+01 GPa]
- sigma(1 1)= -1.83587598E+01  sigma(3 2)=  8.91690912E-01
- sigma(2 2)= -1.79026594E+01  sigma(3 1)=  3.49315437E-01
- sigma(3 3)= -5.87142579E+01  sigma(2 1)=  4.60181314E-01

================================================================================
== DATASET  2 ==================================================================
-   nproc =    1

 Exchange-correlation functional for the present dataset will be:
  LDA: new Teter (4/93) with spin-polarized option - ixc=1
 Citation for XC functional:
  S. Goedecker, M. Teter, J. Huetter, PRB 54, 1703 (1996)

 Real(R)+Recip(G) space primitive vectors, cartesian coordinates (Bohr,Bohr^-1):
 R(1)= 10.0000000  0.0000000  0.0000000  G(1)=  0.1000000  0.0000000  0.0000000
 R(2)=  0.0000000 10.0000000  0.0000000  G(2)=  0.0000000  0.1000000  0.0000000
 R(3)=  0.0000000  0.0000000 10.0000000  G(3)=  0.0000000  0.0000000  0.1000000
 Unit cell volume ucvol=  1.0000000E+03 bohr^3
 Angles (23,13,12)=  9.00000000E+01  9.00000000E+01  9.00000000E+01 degrees

 getcut: wavevector=  0.0000  0.0000  0.0000  ngfft=  96  96  96
         ecut(hartree)=    112.000   => boxcut(ratio)=   2.01510
--------------------------------------------------------------------------------

P newkpt: treating      4 bands with npw=   56619 for ikpt=   1 by node    0

_setup2: Arith. and geom. avg. npw (full set) are   56619.000   56619.000

================================================================================

     iter   Etot(hartree)      deltaE(h)  residm     vres2

 ETOT  1  -6.3244979278603    -6.324E+00 3.937E-01 2.158E+03

 prteigrs : about to open file t03o_DS2_EIG
 Fermi (or HOMO) energy (hartree) =   0.04660   Average Vxc (hartree)=  -0.20138
 Eigenvalues (hartree) for nkpt=   1  k points:
 kpt#   1, nband=  4, wtk=  1.00000, kpt=  0.0000  0.0000  0.0000 (reduced coord)
  -0.63918  -0.15402  -0.07199   0.04660

 ETOT  2  -7.3321908678596    -1.008E+00 7.579E-03 5.704E+03

 prteigrs : about to open file t03o_DS2_EIG
 Fermi (or HOMO) energy (hartree) =  -0.19977   Average Vxc (hartree)=  -0.15793
 Eigenvalues (hartree) for nkpt=   1  k points:
 kpt#   1, nband=  4, wtk=  1.00000, kpt=  0.0000  0.0000  0.0000 (reduced coord)
  -0.58969  -0.27608  -0.25391  -0.19977

 Cartesian components of stress tensor (hartree/bohr^3)
  sigma(1 1)= -6.24001667E-04  sigma(3 2)=  3.03079632E-05
  sigma(2 2)= -6.08499127E-04  sigma(3 1)=  1.18729924E-05
  sigma(3 3)= -1.99565740E-03  sigma(2 1)=  1.56412476E-05


 scprqt:  WARNING -
  nstep=    2 was not enough SCF cycles to converge;
  maximum residual=  7.579E-03 exceeds tolwfr=  1.000E-22

================================================================================

 ----iterations are completed or convergence reached----

 Mean square residual over all n,k,spin=   5.1172E-03; max=  7.5792E-03
   0.0000  0.0000  0.0000    1  7.57919E-03 kpt; spin; max resid(k); each band:
  4.87E-03 7.58E-03 2.91E-03 5.11E-03
 reduced coordinates (array xred) for    2 atoms
       0.000000000000      0.000000000000     -0.150000000000
       0.000000000000      0.000000000000      0.150000000000
 rms dE/dt=  3.6187E+00; max dE/dt=  6.3116E+00; dE/dt below (all hartree)
    1      -0.066101226112     -0.062164650794      6.311563486279
    2       0.016767334322      0.124864022267     -6.221878129010

 cartesian coordinates (angstrom) at end:
    1      0.00000000000000     0.00000000000000    -0.79376581288500
    2      0.00000000000000     0.00000000000000     0.79376581288500

 cartesian forces (hartree/bohr) at end:
    1      0.00414342802169     0.00935143365305    -0.62667208076446
    2     -0.00414342802169    -0.00935143365305     0.62667208076446
 frms,max,avg= 3.6185748E-01 6.2667208E-01   2.467E-03 -3.135E-03 -4.484E-03 h/b

 cartesian forces (eV/Angstrom) at end:
    1      0.21306361756400     0.48087001224481   -32.22477133787291
    2     -0.21306361756400    -0.48087001224481    32.22477133787291
 frms,max,avg= 1.8607458E+01 3.2224771E+01   1.268E-01 -1.612E-01 -2.306E-01 e/A
 length scales= 10.000000000000 10.000000000000 10.000000000000 bohr
              =  5.291772085900  5.291772085900  5.291772085900 angstroms
 prteigrs : about to open file t03o_DS2_EIG
 Fermi (or HOMO) energy (hartree) =  -0.19977   Average Vxc (hartree)=  -0.15793
 Eigenvalues (hartree) for nkpt=   1  k points:
 kpt#   1, nband=  4, wtk=  1.00000, kpt=  0.0000  0.0000  0.0000 (reduced coord)
  -0.58969  -0.27608  -0.25391  -0.19977
 Total charge density [el/Bohr^3]
,     Maximum=    2.3441E-01  at reduced coord.    0.0104    0.0104    0.0000
,Next maximum=    2.3440E-01  at reduced coord.    0.0104    0.0000    0.0000
,     Minimum=    1.0735E-05  at reduced coord.    0.4583    0.5000    0.1458
,Next minimum=    1.0765E-05  at reduced coord.    0.4583    0.5000    0.1354
,  Integrated=    8.0000E+00

--------------------------------------------------------------------------------
 Components of total free energy (in Hartree) :

    Kinetic energy  =  3.73170664283083E+00
    Hartree energy  =  3.60319739985789E+00
    XC energy       = -2.42834547823940E+00
    Ewald energy    = -3.40312010772530E+00
    PspCore energy  = -7.05556410748340E-02
    Loc. psp. energy= -1.15183489403111E+01
    NL   psp  energy=  2.75327525680236E+00
    >>>>>>>>> Etotal= -7.33219086785959E+00

 Other information on the energy :
    Total energy(eV)= -1.99519060240114E+02 ; Band energy (Ha)=  -2.6389157074E+00
--------------------------------------------------------------------------------

          ===> extra information on forces <===
 ewald contribution to reduced grads
    1      -0.000000000000      0.000000000000     15.207136974335
    2       0.000000000000     -0.000000000000    -15.207136974335
 nonlocal contribution to red. grads
    1       1.226845900662      0.416222751603      6.622014661560
    2      -1.778477980909     -0.633485727984     -6.759685378942
 local psp contribution to red. grads
    1      -1.240798480978     -0.495385718578    -16.936513169717
    2       1.778112664997      0.538473786082     15.878061580630
 residual contribution to red. grads
    1      -0.052148645796      0.016998316181      1.418925020101
    2       0.017132650235      0.219875964169     -0.133117356364

 Cartesian components of stress tensor (hartree/bohr^3)
  sigma(1 1)= -6.24001667E-04  sigma(3 2)=  3.03079632E-05
  sigma(2 2)= -6.08499127E-04  sigma(3 1)=  1.18729924E-05
  sigma(3 3)= -1.99565740E-03  sigma(2 1)=  1.56412476E-05

-Cartesian components of stress tensor (GPa)         [Pressure=  3.1659E+01 GPa]
- sigma(1 1)= -1.83587598E+01  sigma(3 2)=  8.91690912E-01
- sigma(2 2)= -1.79026594E+01  sigma(3 1)=  3.49315437E-01
- sigma(3 3)= -5.87142579E+01  sigma(2 1)=  4.60181314E-01

================================================================================
== DATASET  3 ==================================================================
-   nproc =    1

 Exchange-correlation functional for the present dataset will be:
  LDA: new Teter (4/93) with spin-polarized option - ixc=1
 Citation for XC functional:
  S. Goedecker, M. Teter, J. Huetter, PRB 54, 1703 (1996)

 Real(R)+Recip(G) space primitive vectors, cartesian coordinates (Bohr,Bohr^-1):
 R(1)= 10.0000000  0.0000000  0.0000000  G(1)=  0.1000000  0.0000000  0.0000000
 R(2)=  0.0000000 10.0000000  0.0000000  G(2)=  0.0000000  0.1000000  0.0000000
 R(3)=  0.0000000  0.0000000 10.0000000  G(3)=  0.0000000  0.0000000  0.1000000
 Unit cell volume ucvol=  1.0000000E+03 bohr^3
 Angles (23,13,12)=  9.00000000E+01  9.00000000E+01  9.00000000E+01 degrees

 getcut: wavevector=  0.0000  0.0000  0.0000  ngfft=  96  96  96
         ecut(hartree)=    112.000   => boxcut(ratio)=   2.01510
--------------------------------------------------------------------------------

P newkpt: treating      4 bands with npw=   56619 for ikpt=   1 by node    0

_setup2: Arith. and geom. avg. npw (full set) are   56619.000   56619.000

================================================================================

     iter   Etot(hartree)      deltaE(h)  residm     vres2

 ETOT  1  -6.3244979278603    -6.324E+00 3.937E-01 2.158E+03

 prteigrs : about to open file t03o_DS3_EIG
 Fermi (or HOMO) energy (hartree) =   0.04660   Average Vxc (hartree)=  -0.20138
 Eigenvalues (hartree) for nkpt=   1  k points:
 kpt#   1, nband=  4, wtk=  1.00000, kpt=  0.0000  0.0000  0.0000 (reduced coord)
  -0.63918  -0.15402  -0.07199   0.04660

 ETOT  2  -7.3321908678596    -1.008E+00 7.579E-03 5.704E+03

 prteigrs : about to open file t03o_DS3_EIG
 Fermi (or HOMO) energy (hartree) =  -0.19977   Average Vxc (hartree)=  -0.15793
 Eigenvalues (hartree) for nkpt=   1  k points:
 kpt#   1, nband=  4, wtk=  1.00000, kpt=  0.0000  0.0000  0.0000 (reduced coord)
  -0.58969  -0.27608  -0.25391  -0.19977

 Cartesian components of stress tensor (hartree/bohr^3)
  sigma(1 1)= -6.24001667E-04  sigma(3 2)=  3.03079632E-05
  sigma(2 2)= -6.08499127E-04  sigma(3 1)=  1.18729924E-05
  sigma(3 3)= -1.99565740E-03  sigma(2 1)=  1.56412476E-05


 scprqt:  WARNING -
  nstep=    2 was not enough SCF cycles to converge;
  maximum residual=  7.579E-03 exceeds tolwfr=  1.000E-22

================================================================================

 ----iterations are completed or convergence reached----

 Mean square residual over all n,k,spin=   5.1172E-03; max=  7.5792E-03
   0.0000  0.0000  0.0000    1  7.57919E-03 kpt; spin; max resid(k); each band:
  4.87E-03 7.58E-03 2.91E-03 5.11E-03
 reduced coordinates (array xred) for    2 atoms
       0.000000000000      0.000000000000     -0.150000000000
       0.000000000000      0.000000000000      0.150000000000
 rms dE/dt=  3.6187E+00; max dE/dt=  6.3116E+00; dE/dt below (all hartree)
    1      -0.066101226112     -0.062164650794      6.311563486279
    2       0.016767334322      0.124864022267     -6.221878129010

 cartesian coordinates (angstrom) at end:
    1      0.00000000000000     0.00000000000000    -0.79376581288500
    2      0.00000000000000     0.00000000000000     0.79376581288500

 cartesian forces (hartree/bohr) at end:
    1      0.00414342802169     0.00935143365305    -0.62667208076446
    2     -0.00414342802169    -0.00935143365305     0.62667208076446
 frms,max,avg= 3.6185748E-01 6.2667208E-01   2.467E-03 -3.135E-03 -4.484E-03 h/b

 cartesian forces (eV/Angstrom) at end:
    1      0.21306361756400     0.48087001224481   -32.22477133787291
    2     -0.21306361756400    -0.48087001224481    32.22477133787291
 frms,max,avg= 1.8607458E+01 3.2224771E+01   1.268E-01 -1.612E-01 -2.306E-01 e/A
 length scales= 10.000000000000 10.000000000000 10.000000000000 bohr
              =  5.291772085900  5.291772085900  5.291772085900 angstroms
 prteigrs : about to open file t03o_DS3_EIG
 Fermi (or HOMO) energy (hartree) =  -0.19977   Average Vxc (hartree)=  -0.15793
 Eigenvalues (hartree) for nkpt=   1  k points:
 kpt#   1, nband=  4, wtk=  1.00000, kpt=  0.0000  0.0000  0.0000 (reduced coord)
  -0.58969  -0.27608  -0.25391  -0.19977
 Total charge density [el/Bohr^3]
,     Maximum=    2.3441E-01  at reduced coord.    0.0104    0.0104    0.0000
,Next maximum=    2.3440E-01  at reduced coord.    0.0104    0.0000    0.0000
,     Minimum=    1.0735E-05  at reduced coord.    0.4583    0.5000    0.1458
,Next minimum=    1.0765E-05  at reduced coord.    0.4583    0.5000    0.1354
,  Integrated=    8.0000E+00

--------------------------------------------------------------------------------
 Components of total free energy (in Hartree) :

    Kinetic energy  =  3.73170664283083E+00
    Hartree energy  =  3.60319739985789E+00
    XC energy       = -2.42834547823940E+00
    Ewald energy    = -3.40312010772530E+00
    PspCore energy  = -7.05556410748340E-02
    Loc. psp. energy= -1.15183489403111E+01
    NL   psp  energy=  2.75327525680236E+00
    >>>>>>>>> Etotal= -7.33219086785959E+00

 Other information on the energy :
    Total energy(eV)= -1.99519060240114E+02 ; Band energy (Ha)=  -2.6389157074E+00
--------------------------------------------------------------------------------

          ===> extra information on forces <===
 ewald contribution to reduced grads
    1      -0.000000000000      0.000000000000     15.207136974335
    2       0.000000000000     -0.000000000000    -15.207136974335
 nonlocal contribution to red. grads
    1       1.226845900662      0.416222751603      6.622014661560
    2      -1.778477980909     -0.633485727984     -6.759685378942
 local psp contribution to red. grads
    1      -1.240798480978     -0.495385718578    -16.936513169717
    2       1.778112664997      0.538473786082     15.878061580630
 residual contribution to red. grads
    1      -0.052148645796      0.016998316181      1.418925020101
    2       0.017132650235      0.219875964169     -0.133117356364

 Cartesian components of stress tensor (hartree/bohr^3)
  sigma(1 1)= -6.24001667E-04  sigma(3 2)=  3.03079632E-05
  sigma(2 2)= -6.08499127E-04  sigma(3 1)=  1.18729924E-05
  sigma(3 3)= -1.99565740E-03  sigma(2 1)=  1.56412476E-05

-Cartesian components of stress tensor (GPa)         [Pressure=  3.1659E+01 GPa]
- sigma(1 1)= -1.83587598E+01  sigma(3 2)=  8.91690912E-01
- sigma(2 2)= -1.79026594E+01  sigma(3 1)=  3.49315437E-01
- sigma(3 3)= -5.87142579E+01  sigma(2 1)=  4.60181314E-01

== END DATASET(S) ==============================================================
================================================================================
  
 -outvars: echo values of variables after computation  --------
            acell      1.0000000000E+01  1.0000000000E+01  1.0000000000E+01 Bohr
              amu      2.80855000E+01
           densty      1.20000000E+00
           diemac      1.20000000E+01
             ecut      1.12000000E+02 Hartree
           etotal1    -7.3321908679E+00
           etotal2    -7.3321908679E+00
           etotal3    -7.3321908679E+00
            fcart1     4.1434280217E-03  9.3514336530E-03 -6.2667208076E-01
                      -4.1434280217E-03 -9.3514336530E-03  6.2667208076E-01
            fcart2     4.1434280217E-03  9.3514336530E-03 -6.2667208076E-01
                      -4.1434280217E-03 -9.3514336530E-03  6.2667208076E-01
            fcart3     4.1434280217E-03  9.3514336530E-03 -6.2667208076E-01
                      -4.1434280217E-03 -9.3514336530E-03  6.2667208076E-01
-          fftalg         112
         fftcache1         16
         fftcache2          1
         fftcache3        128
            intxc           1
           istwfk        1
           jdtset        1    2    3
           kptopt           0
P           mkmem           1
            natom           2
            nband           4
           ndtset           3
            ngfft          96      96      96
             nkpt           1
            nline           2
            nstep           2
             nsym           1
           ntypat           1
              occ      2.000000  2.000000  2.000000  2.000000
           occopt           0
           prtden           0
           prtvol          10
            prtwf           0
          spgroup           1
           strten1    -6.2400166687E-04 -6.0849912661E-04 -1.9956573981E-03
                       3.0307963164E-05  1.1872992364E-05  1.5641247590E-05
           strten2    -6.2400166687E-04 -6.0849912661E-04 -1.9956573981E-03
                       3.0307963164E-05  1.1872992364E-05  1.5641247590E-05
           strten3    -6.2400166687E-04 -6.0849912661E-04 -1.9956573981E-03
                       3.0307963164E-05  1.1872992364E-05  1.5641247590E-05
           timopt          -1
           tolwfr      1.00000000E-22
            typat      1  1
           xangst      0.0000000000E+00  0.0000000000E+00 -7.9376581289E-01
                       0.0000000000E+00  0.0000000000E+00  7.9376581289E-01
            xcart      0.0000000000E+00  0.0000000000E+00 -1.5000000000E+00
                       0.0000000000E+00  0.0000000000E+00  1.5000000000E+00
             xred      0.0000000000E+00  0.0000000000E+00 -1.5000000000E-01
                       0.0000000000E+00  0.0000000000E+00  1.5000000000E-01
            znucl       14.00000

================================================================================

 Test the timer : 
  a combined call timab(*,1,tsec) + timab(*,2,tsec) is 
- CPU time =    7.1939E-07 sec,    Wall time =    7.1877E-07 sec

- Total cpu        time (s,m,h):         12.8        0.21      0.004
- Total wall clock time (s,m,h):         12.9        0.21      0.004
-
- For major independent code sections, cpu and wall times (sec),
-  as well as % of the time and number of calls for node 0-
-<BEGIN_TIMER mpi_nprocs = 1, omp_nthreads = 1, mpi_rank = 0>
- cpu_time =           12.8, wall_time =           12.9
-
- routine                        cpu     %       wall     %      number of calls  Gflops 
-                                                                  (-1=no count)
- fourwf%(pot)                   5.420  42.4      5.428  42.1            144      -1.00    
- fourdp                         1.846  14.4      1.851  14.4             69      -1.00    
- xc:pot/=fourdp                 1.315  10.3      1.316  10.2              9      -1.00    
- fourwf%(den)                   0.499   3.9      0.499   3.9             24      -1.00    
- nonlop(apply)                  0.491   3.8      0.496   3.9            144      -1.00    
- invars2                        0.245   1.9      0.245   1.9              3      -1.00    
- forces                         0.244   1.9      0.245   1.9              3      -1.00    
- projbd                         0.244   1.9      0.235   1.8            192      -1.00    
- stress                         0.190   1.5      0.189   1.5              3      -1.00    
- timing timab                   0.140   1.1      0.140   1.1             14      -1.00    
- nonlop(forstr)                 0.106   0.8      0.106   0.8             12      -1.00    
- vtowfk(ssdiag)                 0.103   0.8      0.104   0.8             -1      -1.00    
- getghc-other                   0.060   0.5      0.056   0.4             -1      -1.00    
- abinit(2)                      0.059   0.5      0.059   0.5              1      -1.00    
- vtorho(MPI)                    0.032   0.3      0.032   0.2              6      -1.00    
- newkpt(excl. rwwf   )          0.031   0.2      0.031   0.2             -1      -1.00    
- ewald                          0.009   0.1      0.010   0.1              3      -1.00    
- vtowfk(contrib)                0.009   0.1      0.009   0.1              6      -1.00    
- ewald2 (+vdw_dftd2)            0.008   0.1      0.007   0.1              3      -1.00    
- kpgsph                         0.005   0.0      0.004   0.0              6      -1.00    
- pspini                         0.002   0.0      0.002   0.0              3      -1.00    
- inwffil(excl. calls)           0.001   0.0      0.000   0.0              3      -1.00    
- scfcv-scprqt                   0.001   0.0      0.001   0.0              6      -1.00    
- vtowfk  (1)                    0.000   0.0      0.000   0.0              6      -1.00    
- status                         0.000   0.0      0.000   0.0             37      -1.00    
- vtowfk3(contrib)               0.000   0.0      0.000   0.0             -1      -1.00    
- cgwf3-O(npw)                   0.000   0.0      0.000   0.0             -1      -1.00    
- others (78)                    0.000   0.0      0.000   0.0             -1      -1.00    
-<END_TIMER>
-
- subtotal                      11.059  86.5     11.065  85.9

- For major independent code sections, cpu and wall times (sec),
- as well as % of the total time and number of calls 

-<BEGIN_TIMER mpi_nprocs = 1, omp_nthreads = 1, mpi_rank = world>
- cpu_time =          12.8, wall_time =          12.9
-
- routine                         cpu     %       wall     %      number of calls Gflops 
-                                                                  (-1=no count)
- fourwf%(pot)                   5.420  42.4      5.428  42.1            144      -1.00    
- fourdp                         1.846  14.4      1.851  14.4             69      -1.00    
- xc:pot/=fourdp                 1.315  10.3      1.316  10.2              9      -1.00    
- fourwf%(den)                   0.499   3.9      0.499   3.9             24      -1.00    
- nonlop(apply)                  0.491   3.8      0.496   3.9            144      -1.00    
- invars2                        0.245   1.9      0.245   1.9              3      -1.00    
- forces                         0.244   1.9      0.245   1.9              3      -1.00    
- projbd                         0.244   1.9      0.235   1.8            192      -1.00    
- stress                         0.190   1.5      0.189   1.5              3      -1.00    
- timing timab                   0.140   1.1      0.140   1.1             14      -1.00    
- nonlop(forstr)                 0.106   0.8      0.106   0.8             12      -1.00    
- vtowfk(ssdiag)                 0.103   0.8      0.104   0.8             -1      -1.00    
- getghc-other                   0.060   0.5      0.056   0.4             -1      -1.00    
- abinit(2)                      0.059   0.5      0.059   0.5              1      -1.00    
- vtorho(MPI)                    0.032   0.3      0.032   0.2              6      -1.00    
- newkpt(excl. rwwf   )          0.031   0.2      0.031   0.2             -1      -1.00    
- ewald                          0.009   0.1      0.010   0.1              3      -1.00    
- vtowfk(contrib)                0.009   0.1      0.009   0.1              6      -1.00    
- ewald2 (+vdw_dftd2)            0.008   0.1      0.007   0.1              3      -1.00    
- kpgsph                         0.005   0.0      0.004   0.0              6      -1.00    
- pspini                         0.002   0.0      0.002   0.0              3      -1.00    
- inwffil(excl. calls)           0.001   0.0      0.000   0.0              3      -1.00    
- scfcv-scprqt                   0.001   0.0      0.001   0.0              6      -1.00    
- vtowfk  (1)                    0.000   0.0      0.000   0.0              6      -1.00    
- status                         0.000   0.0      0.000   0.0             37      -1.00    
- vtowfk3(contrib)               0.000   0.0      0.000   0.0             -1      -1.00    
- cgwf3-O(npw)                   0.000   0.0      0.000   0.0             -1      -1.00    
- others (78)                    0.000   0.0      0.000   0.0             -1      -1.00    
-<END_TIMER>

- subtotal                      11.059  86.5     11.065  85.9

 Partitioning of abinit
- abinit                        12.779 100.0     12.882 100.0              1
 
- abinit(1)                      0.016   0.1      0.016   0.1              1
- abinit(2)                      0.059   0.5      0.059   0.5              1
- indefo+macroin+invars2m        0.246   1.9      0.246   1.9              1
- abinit(4)                      0.034   0.3      0.034   0.3              1
- abinit(5)                      0.007   0.1      0.007   0.1              1
- driver                        12.274  96.0     12.377  96.1              1
- abinit(6)                      0.003   0.0      0.004   0.0              1
- timing timab                   0.140   1.1      0.140   1.1             14

- subtotal                      12.779 100.0     12.882 100.0

 Partitioning of driver
- driver                        12.274  96.0     12.377  96.1              1
 
- gstateimg                     12.272  96.0     12.376  96.1              3

- subtotal                      12.274  96.0     12.377  96.1

 Partitioning of gstateimg+gstate
- gstateimg                     12.272  96.0     12.376  96.1              3
 
- gstate->kpgsph                 0.035   0.3      0.036   0.3              6
- gstate  (2)                    0.335   2.6      0.335   2.6              3
- gstate(...scfcv)              11.872  92.9     11.975  93.0              3
- gstate  (3)                    0.028   0.2      0.028   0.2              3

- subtotal                      12.272  96.0     12.376  96.1

 Partitioning of scfcv
- scfcv                         11.872  92.9     11.975  93.0              3
 
- scfcv   (1)                    0.014   0.1      0.014   0.1              3
- scfcv(iniloop, setvtr  )       1.135   8.9      1.135   8.8              6
- scfcv(vtorho(f))               7.716  60.4      7.808  60.6              6
- scfcv(rhotov)                  1.766  13.8      1.775  13.8              6
- scfcv(mix pot)                 0.633   5.0      0.633   4.9              6
- scfcv(just after scf)          0.010   0.1      0.011   0.1              3
- scfcv(afterscfloop)            0.592   4.6      0.591   4.6              3
- scfcv(outscfcv)                0.002   0.0      0.003   0.0              3
- scfcv(free)                    0.004   0.0      0.004   0.0              3

- subtotal                      11.872  92.9     11.975  93.0

 Partitioning of rhotov
- rhotov                         1.766  13.8      1.775  13.8              6
 
- rhotov(rhohxc)                 1.645  12.9      1.654  12.8              6
- rhotov(dotprod_vn)             0.010   0.1      0.011   0.1              6
- rhotov(other)                  0.111   0.9      0.110   0.9              6

- subtotal                       1.766  13.8      1.775  13.8

 Partitioning of vtorho
- vtorho                         7.715  60.4      7.808  60.6              6
 
- vtorho(bef. spin loop)         0.021   0.2      0.022   0.2              6
- vtorho(bef. kpt  loop)         0.024   0.2      0.023   0.2              6
- vtorho(bef. vtowfk)            0.076   0.6      0.076   0.6              6
- vtowfk                         7.341  57.4      7.350  57.1              6
- vtorho(aft. kpt loop)          0.011   0.1      0.011   0.1              6
- vtorho(aft. spin loop)         0.003   0.0      0.004   0.0              6
- vtorho(MPI)                    0.032   0.3      0.032   0.2              6
- vtorho(mkrho 2)                0.206   1.6      0.289   2.2             12

- subtotal                       7.715  60.4      7.808  60.6

 Partitioning of vtowfk
- vtowfk                         7.341  57.4      7.350  57.1              6
 
- cgwf                           6.730  52.7      6.737  52.3             12
- vtowfk(subdiago)               0.054   0.4      0.056   0.4             12
- vtowfk(pw_orthon)              0.035   0.3      0.034   0.3             12
- vtowfk(2)                      0.014   0.1      0.014   0.1             -1
- fourwf%vtowfk                  0.499   3.9      0.499   3.9             24
- vtowfk(3)                      0.009   0.1      0.009   0.1             -1

- subtotal                       7.341  57.4      7.350  57.1

 Partitioning of cgwf
- cgwf                           6.730  52.7      6.737  52.3             12
 
- getghc%cgwf                    5.971  46.7      5.980  46.4            144
- cgwf-O(npw)                    0.515   4.0      0.523   4.1             -1
- projbd%cgwf                    0.244   1.9      0.235   1.8            192

- subtotal                       6.730  52.7      6.737  52.3

 Partitioning of getghc
- getghc                         5.971  46.7      5.980  46.4            144
 
- fourwf%getghc                  5.420  42.4      5.428  42.1            144
- nonlop%getghc                  0.491   3.8      0.496   3.9            144
- getghc-other                   0.060   0.5      0.056   0.4             -1

- subtotal                       5.971  46.7      5.980  46.4

 Partitioning of fourwf (upwards partitioning)
- fourwf                         5.919  46.3      5.927  46.0            168
 
- fourwf%getghc                  5.420  42.4      5.428  42.1            144
- fourwf%vtowfk                  0.499   3.9      0.499   3.9             24

- subtotal                       5.919  46.3      5.927  46.0

 Partitioning of inwffil
- inwffil                        0.032   0.3      0.031   0.2              3
 
- inwffil(call newkpt)           0.031   0.2      0.031   0.2              3

- subtotal                       0.032   0.3      0.031   0.2

 Partitioning of newkpt
- newkpt                         0.031   0.2      0.031   0.2              3
 
- newkpt(call wfconv)            0.031   0.2      0.030   0.2              3

- subtotal                       0.031   0.2      0.031   0.2

 Partitioning of newvtr
- newvtr                         0.633   5.0      0.633   4.9              6
 
- newvtr(before selection)       0.013   0.1      0.013   0.1              6
- newvtr(call prcref_PMA)        0.364   2.8      0.365   2.8              6
- newvtr(aft. prcref_PMA)        0.197   1.5      0.195   1.5              6
- newvtr(mean potential)         0.013   0.1      0.013   0.1              6
- (other)                        0.046   0.4      0.048   0.4             -1

- subtotal                       0.633   5.0      0.633   4.9

 Partitioning of  fourdp (upwards partitioning)
- fourdp                         1.846  14.4      1.851  14.4             69
 
- fourdp%(other)                 1.846  14.4      1.851  14.4             69

- subtotal                       1.846  14.4      1.851  14.4

 Partitioning of afterscfloop
- afterscfloop                   0.592   4.6      0.591   4.6              3
 
- afterscfloop(forstr)           0.592   4.6      0.591   4.6              3

- subtotal                       0.592   4.6      0.591   4.6

 Partitioning of forstr
- forstr                         0.592   4.6      0.591   4.6              3
 
- forstr(forstrnps)              0.158   1.2      0.157   1.2              3
- forstr(forces)                 0.244   1.9      0.245   1.9              3
- forstr(stress)                 0.190   1.5      0.189   1.5              3

- subtotal                       0.592   4.6      0.591   4.6

 Partitioning of forstrnps
- forstrnps                      0.158   1.2      0.157   1.2              3
 
- forstrnps(bef.loop band)       0.040   0.3      0.039   0.3              3
- forstrnps(nonlop+prep_ba       0.106   0.8      0.106   0.8             12
- forstrnps(kinetic contr)       0.007   0.1      0.008   0.1             12

- subtotal                       0.158   1.2      0.157   1.2

 Partitioning of outscfcv
- outscfcv                       0.002   0.0      0.003   0.0              3
 

- subtotal                       0.000   0.0      0.000   0.0
-
-Synchronisation (=leave_test) and MPI calls 
- communic.MPI                   0.000   0.0      0.000   0.0            256
-
- forstrnps:synchr               0.000   0.0      0.000   0.0              6
-
- subtotal                       0.000   0.0      0.000   0.0

 Additional information
- timana(1)                      0.000   0.0      0.000   0.0              1
- total timab                    0.141   1.1      0.141   1.1         196273
- fourwf                         5.919  46.3      5.927  46.0            168
- mklocl(2)                      0.111   0.9      0.111   0.9              3
- status                         0.000   0.0      0.000   0.0             37
- nonlop(forstr)                 0.106   0.8      0.106   0.8             12
- nonlop(total)                  0.597   4.7      0.602   4.7            156
- xc:fourdp                      0.874   6.8      0.881   6.8             36

 timana : in multi dataset mode, the more detailed analysis is not done.

================================================================================

 Suggested references for the acknowledgment of ABINIT usage.

 The users of ABINIT have little formal obligations with respect to the ABINIT group
 (those specified in the GNU General Public License, http://www.gnu.org/copyleft/gpl.txt).
 However, it is common practice in the scientific literature,
 to acknowledge the efforts of people that have made the research possible.
 In this spirit, please find below suggested citations of work written by ABINIT developers,
 corresponding to implementations inside of ABINIT that you have used in the present run.
 Note also that it will be of great value to readers of publications presenting these results,
 to read papers enabling them to understand the theoretical formalism and details
 of the ABINIT implementation.
 For information on why they are suggested, see also http://www.abinit.org/about/?text=acknowledgments.

 [1] ABINIT : First-principles approach of materials and nanosystem properties.
 X. Gonze, B. Amadon, P.-M. Anglade, J.-M. Beuken, F. Bottin, P. Boulanger, F. Bruneval,
 D. Caliste, R. Caracas, M. Cote, T. Deutsch, L. Genovese, Ph. Ghosez, M. Giantomassi
 S. Goedecker, D.R. Hamann, P. Hermet, F. Jollet, G. Jomard, S. Leroux, M. Mancini, S. Mazevet,
 M.J.T. Oliveira, G. Onida, Y. Pouillon, T. Rangel, G.-M. Rignanese, D. Sangalli, R. Shaltaf,
 M. Torrent, M.J. Verstraete, G. Zerah, J.W. Zwanziger
 Computer Phys. Comm. 180, 2582-2615 (2009).
 Comment : the third generic paper describing the ABINIT project.
 Note that a version of this paper, that is not formatted for Computer Phys. Comm. 
 is available at http://www.abinit.org/about/ABINIT_CPC_v10.pdf .
 The licence allows the authors to put it on the Web.

 [2] A brief introduction to the ABINIT software package.
 X. Gonze, G.-M. Rignanese, M. Verstraete, J.-M. Beuken, Y. Pouillon, R. Caracas, F. Jollet,
 M. Torrent, G. Zerah, M. Mikami, Ph. Ghosez, M. Veithen, J.-Y. Raty, V. Olevano, F. Bruneval,
 L. Reining, R. Godby, G. Onida, D.R. Hamann, and D.C. Allan.
 Z. Kristallogr. 220, 558-562 (2005).
 Comment : the second generic paper describing the ABINIT project. Note that this paper
 should be cited especially if you are using the GW part of ABINIT, as several authors
 of this part are not in the list of authors of the first or third paper.
 The .pdf of the latter paper is available at http://www.abinit.org/about/zfk_0505-06_558-562.pdf.
 Note that it should not redistributed (Copyright by Oldenburg Wissenshaftverlag,
 the licence allows the authors to put it on the Web).


 And optionally :

 [3] First-principles computation of material properties : the ABINIT software project. 
 X. Gonze, J.-M. Beuken, R. Caracas, F. Detraux, M. Fuchs, G.-M. Rignanese, L. Sindic,
 M. Verstraete, G. Zerah, F. Jollet, M. Torrent, A. Roy, M. Mikami, Ph. Ghosez, J.-Y. Raty, D.C. Allan.
 Computational Materials Science 25, 478-492 (2002). http://dx.doi.org/10.1016/S0927-0256(02)00325-7
 Comment : the original paper describing the ABINIT project.

 [4] Fast radix 2, 3, 4 and 5 kernels for Fast Fourier Transformations
 on computers with overlapping multiply-add instructions.
 S. Goedecker, SIAM J. on Scientific Computing 18, 1605 (1997).
-
- Proc.   0 individual time (sec): cpu=         12.8  wall=         12.9

================================================================================

 Calculation completed.
.Delivered   11 WARNINGs and  10 COMMENTs to log file.
+Overall time at end (sec) : cpu=         12.8  wall=         12.9
