
.Version 7.9.3 of ABINIT 
.(MPI version, prepared for a x86_64_linux_gnu4.7 computer) 

.Copyright (C) 1998-2014 ABINIT group . 
 ABINIT comes with ABSOLUTELY NO WARRANTY.
 It is free software, and you are welcome to redistribute it
 under certain conditions (GNU General Public License,
 see ~abinit/COPYING or http://www.gnu.org/copyleft/gpl.txt).

 ABINIT is a project of the Universite Catholique de Louvain,
 Corning Inc. and other collaborators, see ~abinit/doc/developers/contributors.txt .
 Please read ~abinit/doc/users/acknowledgments.html for suggested
 acknowledgments of the ABINIT effort.
 For more information, see http://www.abinit.org .

.Starting date : Sat 30 Aug 2014.
- ( at 22h40 )
  
- input  file    -> t37.in
- output file    -> t37.out
- root for input  files -> t37i
- root for output files -> t37o


 DATASET    1 : space group P1 (#  1); Bravais aP (primitive triclinic)
================================================================================
 Values of the parameters that define the memory need for DATASET  1.
   intxc =         0  ionmov =         0    iscf =         7 xclevel =         1
  lmnmax =         1   lnmax =         1   mband =         8  mffmem =         1
P  mgfft =        20   mkmem =         8 mpssoang=         2     mpw =       166
  mqgrid =      3001   natom =         2    nfft =      8000    nkpt =         8
  nloalg =         4  nspden =         1 nspinor =         1  nsppol =         1
    nsym =         1  n1xccc =      2501  ntypat =         1  occopt =         1
================================================================================
P This job should need less than                       2.771 Mbytes of memory.
  Rough estimation (10% accuracy) of disk space for files :
_ WF disk file :      0.164 Mbytes ; DEN or POT disk file :      0.063 Mbytes.
================================================================================


 DATASET    2 : space group P1 (#  1); Bravais aP (primitive triclinic)
================================================================================
 Values of the parameters that define the memory need for DATASET  2 (RF).
   intxc =         0    iscf =         7 xclevel =         1  lmnmax =         1
   lnmax =         1   mband =         8  mffmem =         1   mgfft =        20
P  mkmem =         8  mkqmem =         8  mk1mem =         8 mpssoang=         2
     mpw =       332  mqgrid =      3001   natom =         2    nfft =      8000
    nkpt =         8  nloalg =         4  nspden =         1 nspinor =         1
  nsppol =         1    nsym =         1  n1xccc =      2501  ntypat =         1
  occopt =         1
================================================================================
P This job should need less than                       3.251 Mbytes of memory.
  Rough estimation (10% accuracy) of disk space for files :
_ WF disk file :      0.326 Mbytes ; DEN or POT disk file :      0.063 Mbytes.
================================================================================


 DATASET    3 : space group P1 (#  1); Bravais aP (primitive triclinic)
================================================================================
 Values of the parameters that define the memory need for DATASET  3.
   intxc =         0  ionmov =         0    iscf =        -2 xclevel =         1
  lmnmax =         1   lnmax =         1   mband =         8  mffmem =         1
P  mgfft =        20   mkmem =         8 mpssoang=         2     mpw =       332
  mqgrid =      3001   natom =         2    nfft =      8000    nkpt =         8
  nloalg =         4  nspden =         1 nspinor =         1  nsppol =         1
    nsym =         1  n1xccc =      2501  ntypat =         1  occopt =         1
================================================================================
P This job should need less than                       2.020 Mbytes of memory.
  Rough estimation (10% accuracy) of disk space for files :
_ WF disk file :      0.326 Mbytes ; DEN or POT disk file :      0.063 Mbytes.
================================================================================


 DATASET    4 : space group P1 (#  1); Bravais aP (primitive triclinic)
================================================================================
 Values of the parameters that define the memory need for DATASET  4 (RF).
   intxc =         0    iscf =         7 xclevel =         1  lmnmax =         1
   lnmax =         1   mband =         8  mffmem =         1   mgfft =        20
P  mkmem =         8  mkqmem =         8  mk1mem =         8 mpssoang=         2
     mpw =       332  mqgrid =      3001   natom =         2    nfft =      8000
    nkpt =         8  nloalg =         4  nspden =         1 nspinor =         1
  nsppol =         1    nsym =         1  n1xccc =      2501  ntypat =         1
  occopt =         1
================================================================================
P This job should need less than                       3.691 Mbytes of memory.
  Rough estimation (10% accuracy) of disk space for files :
_ WF disk file :      0.326 Mbytes ; DEN or POT disk file :      0.063 Mbytes.
================================================================================

--------------------------------------------------------------------------------
------------- Echo of variables that govern the present computation ------------
--------------------------------------------------------------------------------
-
- outvars: echo of selected default values                                      
-   accesswff0 =  0 , fftalg0 =112 , wfoptalg0 =  0
-
- outvars: echo of global parameters not present in the input file              
-  max_nthreads =    0
-
 -outvars: echo values of preprocessed input variables --------
            acell      6.7034680500E+00  6.7034680500E+00  6.7034680500E+00 Bohr
              amu      1.20110000E+01
          bdeigrf           8
           diemac      6.00000000E+00
             ecut      2.00000000E+01 Hartree
           ecutsm      5.00000000E-01 Hartree
    elph2_imagden      3.67493254E-03 Hartree
           enunit           2
-          fftalg         112
           getden1          0
           getden2          1
           getden3          1
           getden4          1
   getgam_eig2nkq1          0
   getgam_eig2nkq2          0
   getgam_eig2nkq3          0
   getgam_eig2nkq4          2
           getwfk1          0
           getwfk2          1
           getwfk3          1
           getwfk4          1
           getwfq1          0
           getwfq2          0
           getwfq3          0
           getwfq4         -1
          ieig2rf1          0
          ieig2rf2          1
          ieig2rf3          0
          ieig2rf4          1
             iscf1          7
             iscf2          7
             iscf3         -2
             iscf4          7
           istwfk1       2    3    6    7    4    5    8    9
           istwfk2       1    1    1    1    1    1    1    1
           istwfk3       7    0    0    0    9    0    0    0
           istwfk4       1    1    1    1    1    1    1    1
           jdtset        1    2    3    4
              kpt      0.00000000E+00  0.00000000E+00  0.00000000E+00
                       5.00000000E-01  0.00000000E+00  0.00000000E+00
                       0.00000000E+00  5.00000000E-01  0.00000000E+00
                       5.00000000E-01  5.00000000E-01  0.00000000E+00
                       0.00000000E+00  0.00000000E+00  5.00000000E-01
                       5.00000000E-01  0.00000000E+00  5.00000000E-01
                       0.00000000E+00  5.00000000E-01  5.00000000E-01
                       5.00000000E-01  5.00000000E-01  5.00000000E-01
           kptopt           3
         kptrlatt        2    0    0      0    2    0      0    0    2
          kptrlen      9.48013543E+00
P           mkmem           8
P          mkqmem           8
P          mk1mem           8
            natom           2
            nband           8
           nbdbuf1          0
           nbdbuf2          0
           nbdbuf3          2
           nbdbuf4          0
           ndtset           4
            ngfft          20      20      20
             nkpt           8
             nqpt1          0
             nqpt2          1
             nqpt3          1
             nqpt4          1
             nsym           1
           ntypat           1
              occ      2.000000  2.000000  2.000000  2.000000  0.000000  0.000000
                       0.000000  0.000000
        optdriver1          0
        optdriver2          1
        optdriver3          0
        optdriver4          1
              qpt1     0.00000000E+00  0.00000000E+00  0.00000000E+00
              qpt2     0.00000000E+00  0.00000000E+00  0.00000000E+00
              qpt3     5.00000000E-01  5.00000000E-01  0.00000000E+00
              qpt4     5.00000000E-01  5.00000000E-01  0.00000000E+00
            rfasr           1
          rfatpol           1       2
            rfdir           1       1       1
           rfphon1          0
           rfphon2          1
           rfphon3          0
           rfphon4          1
            rprim      0.0000000000E+00  5.0000000000E-01  5.0000000000E-01
                       5.0000000000E-01  0.0000000000E+00  5.0000000000E-01
                       5.0000000000E-01  5.0000000000E-01  0.0000000000E+00
          spgroup           1
           tolwfr      1.00000000E-16
            typat      1  1
              wtk        0.12500    0.12500    0.12500    0.12500    0.12500    0.12500
                         0.12500    0.12500
           xangst      0.0000000000E+00  0.0000000000E+00  0.0000000000E+00
                       8.8683062764E-01  8.8683062764E-01  8.8683062764E-01
            xcart      0.0000000000E+00  0.0000000000E+00  0.0000000000E+00
                       1.6758670125E+00  1.6758670125E+00  1.6758670125E+00
             xred      0.0000000000E+00  0.0000000000E+00  0.0000000000E+00
                       2.5000000000E-01  2.5000000000E-01  2.5000000000E-01
            znucl        6.00000

================================================================================

 chkinp: Checking input parameters for consistency, jdtset=   1.

 chkinp: Checking input parameters for consistency, jdtset=   2.

 chkinp: Checking input parameters for consistency, jdtset=   3.

 chkinp: Checking input parameters for consistency, jdtset=   4.

================================================================================
== DATASET  1 ==================================================================
-   nproc =    1

 Exchange-correlation functional for the present dataset will be:
  LDA: new Teter (4/93) with spin-polarized option - ixc=1
 Citation for XC functional:
  S. Goedecker, M. Teter, J. Huetter, PRB 54, 1703 (1996)

 Real(R)+Recip(G) space primitive vectors, cartesian coordinates (Bohr,Bohr^-1):
 R(1)=  0.0000000  3.3517340  3.3517340  G(1)= -0.1491765  0.1491765  0.1491765
 R(2)=  3.3517340  0.0000000  3.3517340  G(2)=  0.1491765 -0.1491765  0.1491765
 R(3)=  3.3517340  3.3517340  0.0000000  G(3)=  0.1491765  0.1491765 -0.1491765
 Unit cell volume ucvol=  7.5307571E+01 bohr^3
 Angles (23,13,12)=  6.00000000E+01  6.00000000E+01  6.00000000E+01 degrees

 getcut: wavevector=  0.0000  0.0000  0.0000  ngfft=  20  20  20
         ecut(hartree)=     20.000   => boxcut(ratio)=   2.09587

--- Pseudopotential description ------------------------------------------------
- pspini: atom type   1  psp file is /home/gonze/ABINIT/ABINITv7.9.3/trunk/7.9.3-private/tests/Psps_for_tests/6c.pspnc
- pspatm: opening atomic psp file    /home/gonze/ABINIT/ABINITv7.9.3/trunk/7.9.3-private/tests/Psps_for_tests/6c.pspnc
-  Troullier-Martins psp for element  C         Thu Oct 27 17:29:33 EDT 1994
-  6.00000   4.00000    940714                znucl, zion, pspdat
    1    1    1    1      2001   0.00000      pspcod,pspxc,lmax,lloc,mmax,r2well
    0  10.372  24.987    1   1.4850707        l,e99.0,e99.9,nproj,rcpsp
   0.00000000   0.00000000   0.00000000   0.00000000     rms, ekb1, ekb2, epsatm
    1  15.431  21.987    0   1.4850707        l,e99.0,e99.9,nproj,rcpsp
   0.00000000   0.00000000   0.00000000   0.00000000     rms, ekb1, ekb2, epsatm
    0.83985002509544    0.99012430797080    0.51184907750884   rchrg,fchrg,qchrg
 pspatm: epsatm=    0.92590353
         --- l  ekb(1:nproj) -->
             0    4.921466
 pspatm: atomic psp has been read  and splines computed

   1.48144565E+01                                ecore*ucvol(ha*bohr**3)
--------------------------------------------------------------------------------

P newkpt: treating      8 bands with npw=     166 for ikpt=   1 by node    0
P newkpt: treating      8 bands with npw=     166 for ikpt=   2 by node    0
P newkpt: treating      8 bands with npw=     166 for ikpt=   3 by node    0
P newkpt: treating      8 bands with npw=     163 for ikpt=   4 by node    0
P newkpt: treating      8 bands with npw=     166 for ikpt=   5 by node    0
P newkpt: treating      8 bands with npw=     163 for ikpt=   6 by node    0
P newkpt: treating      8 bands with npw=     163 for ikpt=   7 by node    0
P newkpt: treating      8 bands with npw=     166 for ikpt=   8 by node    0

_setup2: Arith. and geom. avg. npw (full set) are     329.625     329.613

================================================================================

     iter   Etot(hartree)      deltaE(h)  residm     vres2
 ETOT  1  -11.931339230893    -1.193E+01 6.565E-02 3.259E+01
 ETOT  2  -11.946921156691    -1.558E-02 4.977E-06 1.220E-01
 ETOT  3  -11.946961928801    -4.077E-05 2.470E-06 7.149E-03
 ETOT  4  -11.946960001348     1.927E-06 6.365E-07 7.199E-03
 ETOT  5  -11.946966449719    -6.448E-06 2.031E-07 8.466E-06
 ETOT  6  -11.946966456573    -6.854E-09 3.560E-10 2.569E-08
 ETOT  7  -11.946966456587    -1.370E-11 2.122E-12 2.649E-10
 ETOT  8  -11.946966456587    -1.386E-13 3.777E-14 1.006E-12
 ETOT  9  -11.946966456587    -8.882E-15 5.546E-16 3.619E-15
 ETOT 10  -11.946966456587    -2.487E-14 9.480E-17 5.366E-17

 At SCF step   10   max residual=  9.48E-17 < tolwfr=  1.00E-16 =>converged.

 Cartesian components of stress tensor (hartree/bohr^3)
  sigma(1 1)= -2.04815928E-03  sigma(3 2)= -8.89743740E-11
  sigma(2 2)= -2.04815926E-03  sigma(3 1)= -1.08806272E-10
  sigma(3 3)= -2.04815926E-03  sigma(2 1)= -3.21096961E-11

================================================================================

 ----iterations are completed or convergence reached----

 Mean square residual over all n,k,spin=   3.8516E-17; max=  9.4800E-17
   0.0000  0.0000  0.0000    1  7.56655E-17 kpt; spin; max resid(k); each band:
  2.15E-17 7.57E-17 5.95E-17 1.47E-17 9.51E-18 3.31E-17 6.06E-17 2.37E-17
   0.5000  0.0000  0.0000    1  7.69635E-17 kpt; spin; max resid(k); each band:
  2.89E-18 5.72E-17 7.70E-17 1.23E-17 1.54E-17 1.01E-17 1.41E-17 4.50E-17
   0.0000  0.5000  0.0000    1  7.80161E-17 kpt; spin; max resid(k); each band:
  3.61E-18 4.49E-17 8.06E-18 1.32E-17 1.83E-17 1.07E-17 1.38E-17 7.80E-17
   0.5000  0.5000  0.0000    1  9.47996E-17 kpt; spin; max resid(k); each band:
  2.20E-17 9.83E-18 3.10E-17 4.52E-17 6.02E-17 6.41E-17 4.70E-17 9.48E-17
   0.0000  0.0000  0.5000    1  9.21690E-17 kpt; spin; max resid(k); each band:
  2.55E-17 9.81E-18 9.81E-18 8.54E-17 1.31E-17 9.22E-17 3.77E-17 6.58E-17
   0.5000  0.0000  0.5000    1  7.69804E-17 kpt; spin; max resid(k); each band:
  3.82E-17 7.51E-18 7.43E-17 1.45E-17 5.19E-17 7.70E-17 3.91E-17 5.57E-17
   0.0000  0.5000  0.5000    1  8.24365E-17 kpt; spin; max resid(k); each band:
  4.47E-17 7.45E-18 6.23E-17 1.08E-17 4.87E-17 7.58E-17 4.48E-17 8.24E-17
   0.5000  0.5000  0.5000    1  7.65206E-17 kpt; spin; max resid(k); each band:
  3.74E-17 5.26E-17 7.65E-17 1.57E-17 1.17E-17 1.12E-17 6.97E-17 1.84E-17
 reduced coordinates (array xred) for    2 atoms
       0.000000000000      0.000000000000      0.000000000000
       0.250000000000      0.250000000000      0.250000000000
 rms dE/dt=  3.9931E-08; max dE/dt=  4.4892E-08; dE/dt below (all hartree)
    1       0.000000036226      0.000000001741      0.000000044892
    2      -0.000000025675     -0.000000042921     -0.000000061114

 cartesian coordinates (angstrom) at end:
    1      0.00000000000000     0.00000000000000     0.00000000000000
    2      0.88683062764281     0.88683062764281     0.88683062764281

 cartesian forces (hartree/bohr) at end:
    1     -0.00000000662102    -0.00000000919272    -0.00000000004143
    2      0.00000000662102     0.00000000919272     0.00000000004143
 frms,max,avg= 6.5407887E-09 9.1927226E-09   5.068E-09 -2.649E-09  1.075E-09 h/b

 cartesian forces (eV/Angstrom) at end:
    1     -0.00000034046642    -0.00000047270876    -0.00000000213020
    2      0.00000034046642     0.00000047270876     0.00000000213020
 frms,max,avg= 3.3634085E-07 4.7270876E-07   2.606E-07 -1.362E-07  5.526E-08 e/A
 length scales=  6.703468050000  6.703468050000  6.703468050000 bohr
              =  3.547322510571  3.547322510571  3.547322510571 angstroms
 prteigrs : about to open file t37o_DS1_EIG
 Fermi (or HOMO) energy (hartree) =   0.48327   Average Vxc (hartree)=  -0.50315
 Eigenvalues (hartree) for nkpt=   8  k points:
 kpt#   1, nband=  8, wtk=  0.12500, kpt=  0.0000  0.0000  0.0000 (reduced coord)
  -0.31631   0.48327   0.48327   0.48327   0.68622   0.68622   0.68622   0.99279
 kpt#   2, nband=  8, wtk=  0.12500, kpt=  0.5000  0.0000  0.0000 (reduced coord)
  -0.09487  -0.02093   0.37797   0.37797   0.79181   0.79181   0.82076   1.05137
 kpt#   3, nband=  8, wtk=  0.12500, kpt=  0.0000  0.5000  0.0000 (reduced coord)
  -0.09487  -0.02093   0.37797   0.37797   0.79181   0.79181   0.82076   1.05137
 kpt#   4, nband=  8, wtk=  0.12500, kpt=  0.5000  0.5000  0.0000 (reduced coord)
   0.01154   0.01154   0.24526   0.24526   0.65072   0.65072   1.11343   1.11343
 kpt#   5, nband=  8, wtk=  0.12500, kpt=  0.0000  0.0000  0.5000 (reduced coord)
  -0.09487  -0.02093   0.37797   0.37797   0.79181   0.79181   0.82076   1.05137
 kpt#   6, nband=  8, wtk=  0.12500, kpt=  0.5000  0.0000  0.5000 (reduced coord)
   0.01154   0.01154   0.24526   0.24526   0.65072   0.65072   1.11343   1.11343
 kpt#   7, nband=  8, wtk=  0.12500, kpt=  0.0000  0.5000  0.5000 (reduced coord)
   0.01154   0.01154   0.24526   0.24526   0.65072   0.65072   1.11343   1.11343
 kpt#   8, nband=  8, wtk=  0.12500, kpt=  0.5000  0.5000  0.5000 (reduced coord)
  -0.09487  -0.02093   0.37797   0.37797   0.79181   0.79181   0.82076   1.05137
 Fermi (or HOMO) energy (eV) =  13.15041   Average Vxc (eV)= -13.69139
 Eigenvalues (   eV  ) for nkpt=   8  k points:
 kpt#   1, nband=  8, wtk=  0.12500, kpt=  0.0000  0.0000  0.0000 (reduced coord)
  -8.60718  13.15041  13.15041  13.15041  18.67296  18.67296  18.67296  27.01512
 kpt#   2, nband=  8, wtk=  0.12500, kpt=  0.5000  0.0000  0.0000 (reduced coord)
  -2.58156  -0.56961  10.28513  10.28513  21.54632  21.54632  22.33410  28.60917
 kpt#   3, nband=  8, wtk=  0.12500, kpt=  0.0000  0.5000  0.0000 (reduced coord)
  -2.58156  -0.56961  10.28513  10.28513  21.54632  21.54632  22.33410  28.60917
 kpt#   4, nband=  8, wtk=  0.12500, kpt=  0.5000  0.5000  0.0000 (reduced coord)
   0.31401   0.31401   6.67387   6.67387  17.70708  17.70708  30.29790  30.29790
 kpt#   5, nband=  8, wtk=  0.12500, kpt=  0.0000  0.0000  0.5000 (reduced coord)
  -2.58156  -0.56961  10.28513  10.28513  21.54632  21.54632  22.33410  28.60917
 kpt#   6, nband=  8, wtk=  0.12500, kpt=  0.5000  0.0000  0.5000 (reduced coord)
   0.31401   0.31401   6.67387   6.67387  17.70708  17.70708  30.29790  30.29790
 kpt#   7, nband=  8, wtk=  0.12500, kpt=  0.0000  0.5000  0.5000 (reduced coord)
   0.31401   0.31401   6.67387   6.67387  17.70708  17.70708  30.29790  30.29790
 kpt#   8, nband=  8, wtk=  0.12500, kpt=  0.5000  0.5000  0.5000 (reduced coord)
  -2.58156  -0.56961  10.28513  10.28513  21.54632  21.54632  22.33410  28.60917
 Total charge density [el/Bohr^3]
,     Maximum=    3.1639E-01  at reduced coord.    0.8000    0.1000    0.0500
,Next maximum=    3.1639E-01  at reduced coord.    0.8000    0.0500    0.0500
,     Minimum=    1.1703E-02  at reduced coord.    0.7500    0.7500    0.7500
,Next minimum=    1.1703E-02  at reduced coord.    0.5000    0.5000    0.5000
,  Integrated=    8.0000E+00

--------------------------------------------------------------------------------
 Components of total free energy (in Hartree) :

    Kinetic energy  =  8.88377027370465E+00
    Hartree energy  =  1.04110235276181E+00
    XC energy       = -4.38439588741031E+00
    Ewald energy    = -1.28573401205767E+01
    PspCore energy  =  1.96719350698876E-01
    Loc. psp. energy= -5.96556925879736E+00
    NL   psp  energy=  1.13874683303213E+00
    >>>>>>>>> Etotal= -1.19469664565869E+01

 Other information on the energy :
    Total energy(eV)= -3.25093490212731E+02 ; Band energy (Ha)=   1.3087143456E+00
--------------------------------------------------------------------------------

 Cartesian components of stress tensor (hartree/bohr^3)
  sigma(1 1)= -2.04815928E-03  sigma(3 2)= -8.89743740E-11
  sigma(2 2)= -2.04815926E-03  sigma(3 1)= -1.08806272E-10
  sigma(3 3)= -2.04815926E-03  sigma(2 1)= -3.21096961E-11

-Cartesian components of stress tensor (GPa)         [Pressure=  6.0259E+01 GPa]
- sigma(1 1)= -6.02589162E+01  sigma(3 2)= -2.61771602E-06
- sigma(2 2)= -6.02589157E+01  sigma(3 1)= -3.20119052E-06
- sigma(3 3)= -6.02589157E+01  sigma(2 1)= -9.44699716E-07

================================================================================
== DATASET  2 ==================================================================
-   nproc =    1

 mkfilename : getwfk/=0, take file _WFK from output of DATASET   1.

 mkfilename : getden/=0, take file _DEN from output of DATASET   1.

 Exchange-correlation functional for the present dataset will be:
  LDA: new Teter (4/93) with spin-polarized option - ixc=1
 Citation for XC functional:
  S. Goedecker, M. Teter, J. Huetter, PRB 54, 1703 (1996)

 Real(R)+Recip(G) space primitive vectors, cartesian coordinates (Bohr,Bohr^-1):
 R(1)=  0.0000000  3.3517340  3.3517340  G(1)= -0.1491765  0.1491765  0.1491765
 R(2)=  3.3517340  0.0000000  3.3517340  G(2)=  0.1491765 -0.1491765  0.1491765
 R(3)=  3.3517340  3.3517340  0.0000000  G(3)=  0.1491765  0.1491765 -0.1491765
 Unit cell volume ucvol=  7.5307571E+01 bohr^3
 Angles (23,13,12)=  6.00000000E+01  6.00000000E+01  6.00000000E+01 degrees
 setup1 : take into account q-point for computing boxcut.

 getcut: wavevector=  0.0000  0.0000  0.0000  ngfft=  20  20  20
         ecut(hartree)=     20.000   => boxcut(ratio)=   2.09587
--------------------------------------------------------------------------------

-inwffil : will read wavefunctions from disk file t37o_DS1_WFK
- newkpt: read input wf with ikpt,npw=   1     166, make ikpt,npw=   1     331
- newkpt: read input wf with ikpt,npw=   2     166, make ikpt,npw=   2     332
- newkpt: read input wf with ikpt,npw=   3     166, make ikpt,npw=   3     332
- newkpt: read input wf with ikpt,npw=   4     163, make ikpt,npw=   4     326
- newkpt: read input wf with ikpt,npw=   5     166, make ikpt,npw=   5     332
- newkpt: read input wf with ikpt,npw=   6     163, make ikpt,npw=   6     326
- newkpt: read input wf with ikpt,npw=   7     163, make ikpt,npw=   7     326
- newkpt: read input wf with ikpt,npw=   8     166, make ikpt,npw=   8     332


 ==>  initialize data related to q vector <== 

 The list of irreducible perturbations for this q vector is:
    1)    idir= 1    ipert=   1
    2)    idir= 2    ipert=   1
    3)    idir= 3    ipert=   1
    4)    idir= 1    ipert=   2
    5)    idir= 2    ipert=   2
    6)    idir= 3    ipert=   2

================================================================================

--------------------------------------------------------------------------------
 Perturbation wavevector (in red.coord.)   0.000000  0.000000  0.000000
 Perturbation : displacement of atom   1   along direction   1
 The set of symmetries contains only one element for this perturbation.
 symkpt : not enough symmetry to change the number of k points.

--------------------------------------------------------------------------------

-inwffil : will read wavefunctions from disk file t37o_DS1_WFK
- newkpt: read input wf with ikpt,npw=   1     166, make ikpt,npw=   1     331
- newkpt: read input wf with ikpt,npw=   2     166, make ikpt,npw=   2     332
- newkpt: read input wf with ikpt,npw=   3     166, make ikpt,npw=   3     332
- newkpt: read input wf with ikpt,npw=   4     163, make ikpt,npw=   4     326
- newkpt: read input wf with ikpt,npw=   5     166, make ikpt,npw=   5     332
- newkpt: read input wf with ikpt,npw=   6     163, make ikpt,npw=   6     326
- newkpt: read input wf with ikpt,npw=   7     163, make ikpt,npw=   7     326
- newkpt: read input wf with ikpt,npw=   8     166, make ikpt,npw=   8     332

--------------------------------------------------------------------------------

-inwffil : will read wavefunctions from disk file t37o_DS1_WFK
- newkpt: read input wf with ikpt,npw=   1     166, make ikpt,npw=   1     331
- newkpt: read input wf with ikpt,npw=   2     166, make ikpt,npw=   2     332
- newkpt: read input wf with ikpt,npw=   3     166, make ikpt,npw=   3     332
- newkpt: read input wf with ikpt,npw=   4     163, make ikpt,npw=   4     326
- newkpt: read input wf with ikpt,npw=   5     166, make ikpt,npw=   5     332
- newkpt: read input wf with ikpt,npw=   6     163, make ikpt,npw=   6     326
- newkpt: read input wf with ikpt,npw=   7     163, make ikpt,npw=   7     326
- newkpt: read input wf with ikpt,npw=   8     166, make ikpt,npw=   8     332

 Initialisation of the first-order wave-functions :
  ireadwf=   0
P newkpt: treating      8 bands with npw=     331 for ikpt=   1 by node    0
P newkpt: treating      8 bands with npw=     332 for ikpt=   2 by node    0
P newkpt: treating      8 bands with npw=     332 for ikpt=   3 by node    0
P newkpt: treating      8 bands with npw=     326 for ikpt=   4 by node    0
P newkpt: treating      8 bands with npw=     332 for ikpt=   5 by node    0
P newkpt: treating      8 bands with npw=     326 for ikpt=   6 by node    0
P newkpt: treating      8 bands with npw=     326 for ikpt=   7 by node    0
P newkpt: treating      8 bands with npw=     332 for ikpt=   8 by node    0


     iter   2DEtotal(Ha)        deltaE(Ha) residm    vres2
-ETOT  1   23.417032682837     -2.429E+02 1.592E+00 1.094E+04
 ETOT  2   13.931618880427     -9.485E+00 1.509E-01 2.643E+02
 ETOT  3   13.618147989259     -3.135E-01 4.189E-03 1.929E+00
 ETOT  4   13.616145256336     -2.003E-03 2.454E-05 2.978E-02
 ETOT  5   13.616152353070      7.097E-06 3.190E-07 2.628E-02
 ETOT  6   13.616105227525     -4.713E-05 1.960E-08 2.033E-05
 ETOT  7   13.616105198747     -2.878E-08 1.104E-09 1.068E-08
 ETOT  8   13.616105198742     -5.286E-12 1.633E-12 6.215E-11
 ETOT  9   13.616105198743      1.421E-12 6.531E-14 6.009E-13
 ETOT 10   13.616105198743     -2.558E-13 2.579E-16 3.999E-15
 ETOT 11   13.616105198742     -7.390E-13 9.917E-17 4.827E-17

 At SCF step   11   max residual=  9.92E-17 < tolwfr=  1.00E-16 =>converged.
================================================================================

 ----iterations are completed or convergence reached----

 Mean square residual over all n,k,spin=   5.6738E-17; max=  9.9168E-17
   0.0000  0.0000  0.0000    1  9.20577E-17 kpt; spin; max resid(k); each band:
  2.98E-17 5.22E-17 5.81E-17 5.64E-17 8.65E-17 6.51E-17 7.27E-17 9.21E-17
   0.5000  0.0000  0.0000    1  7.11921E-17 kpt; spin; max resid(k); each band:
  7.12E-17 4.58E-17 4.97E-17 6.58E-17 1.50E-17 5.82E-17 4.28E-17 1.39E-17
   0.0000  0.5000  0.0000    1  7.66286E-17 kpt; spin; max resid(k); each band:
  6.40E-17 4.51E-17 7.66E-17 7.53E-17 1.40E-17 7.42E-17 5.80E-17 3.68E-17
   0.5000  0.5000  0.0000    1  9.91683E-17 kpt; spin; max resid(k); each band:
  3.38E-17 3.25E-17 6.09E-17 8.81E-17 9.92E-17 3.44E-17 5.80E-17 9.65E-17
   0.0000  0.0000  0.5000    1  9.41314E-17 kpt; spin; max resid(k); each band:
  7.27E-17 4.82E-17 9.41E-17 6.61E-17 7.00E-17 6.68E-17 7.10E-17 8.57E-17
   0.5000  0.0000  0.5000    1  9.78642E-17 kpt; spin; max resid(k); each band:
  3.16E-17 9.18E-17 8.10E-17 9.79E-17 4.90E-17 9.72E-18 5.10E-17 8.63E-17
   0.0000  0.5000  0.5000    1  8.54668E-17 kpt; spin; max resid(k); each band:
  3.34E-17 2.20E-17 1.82E-17 6.15E-17 2.93E-17 4.77E-18 8.55E-17 4.03E-17
   0.5000  0.5000  0.5000    1  6.99199E-17 kpt; spin; max resid(k); each band:
  5.94E-17 4.46E-17 5.46E-17 6.99E-17 6.13E-17 6.42E-17 1.76E-17 6.90E-17

 Thirteen components of 2nd-order total energy (hartree) are
 1,2,3: 0th-order hamiltonian combined with 1st-order wavefunctions
     kin0=   3.26888679E+02 eigvalue=  -1.90378025E+01  local=  -1.67058756E+02
 4,5,6: 1st-order hamiltonian combined with 1st and 0th-order wfs
 loc psp =  -1.75225008E+02  Hartree=   2.62601931E+01     xc=  -9.09588872E+00
 note that "loc psp" includes a xc core correction that could be resolved
 7,8,9: eventually, occupation + non-local contributions
    edocc=   1.24070022E+01     enl0=   8.23401829E+01   enl1=  -3.30182213E+02
 1-9 gives the relaxation energy (to be shifted if some occ is /=2.0)
   erelax=  -2.52703610E+02
 10,11,12 Non-relaxation  contributions : frozen-wavefunctions and Ewald
 fr.local=   6.55955891E+01 fr.nonlo=   1.81941247E+02  Ewald=   1.99958120E+01
 13,14 Frozen wf xc core corrections (1) and (2)
 frxc 1  =  -1.06811382E+01  frxc 2 =   9.46820546E+00
 Resulting in :
 2DEtotal=    0.1361610520E+02 Ha. Also 2DEtotal=    0.370513065241E+03 eV
    (2DErelax=   -2.5270361045E+02 Ha. 2DEnonrelax=    2.6631971565E+02 Ha)
    (  non-var. 2DEtotal :    1.3616105202E+01 Ha)


--------------------------------------------------------------------------------
 Perturbation wavevector (in red.coord.)   0.000000  0.000000  0.000000
 Perturbation : displacement of atom   1   along direction   2
 The set of symmetries contains only one element for this perturbation.
 symkpt : not enough symmetry to change the number of k points.

--------------------------------------------------------------------------------

-inwffil : will read wavefunctions from disk file t37o_DS1_WFK
- newkpt: read input wf with ikpt,npw=   1     166, make ikpt,npw=   1     331
- newkpt: read input wf with ikpt,npw=   2     166, make ikpt,npw=   2     332
- newkpt: read input wf with ikpt,npw=   3     166, make ikpt,npw=   3     332
- newkpt: read input wf with ikpt,npw=   4     163, make ikpt,npw=   4     326
- newkpt: read input wf with ikpt,npw=   5     166, make ikpt,npw=   5     332
- newkpt: read input wf with ikpt,npw=   6     163, make ikpt,npw=   6     326
- newkpt: read input wf with ikpt,npw=   7     163, make ikpt,npw=   7     326
- newkpt: read input wf with ikpt,npw=   8     166, make ikpt,npw=   8     332

--------------------------------------------------------------------------------

-inwffil : will read wavefunctions from disk file t37o_DS1_WFK
- newkpt: read input wf with ikpt,npw=   1     166, make ikpt,npw=   1     331
- newkpt: read input wf with ikpt,npw=   2     166, make ikpt,npw=   2     332
- newkpt: read input wf with ikpt,npw=   3     166, make ikpt,npw=   3     332
- newkpt: read input wf with ikpt,npw=   4     163, make ikpt,npw=   4     326
- newkpt: read input wf with ikpt,npw=   5     166, make ikpt,npw=   5     332
- newkpt: read input wf with ikpt,npw=   6     163, make ikpt,npw=   6     326
- newkpt: read input wf with ikpt,npw=   7     163, make ikpt,npw=   7     326
- newkpt: read input wf with ikpt,npw=   8     166, make ikpt,npw=   8     332

 Initialisation of the first-order wave-functions :
  ireadwf=   0
P newkpt: treating      8 bands with npw=     331 for ikpt=   1 by node    0
P newkpt: treating      8 bands with npw=     332 for ikpt=   2 by node    0
P newkpt: treating      8 bands with npw=     332 for ikpt=   3 by node    0
P newkpt: treating      8 bands with npw=     326 for ikpt=   4 by node    0
P newkpt: treating      8 bands with npw=     332 for ikpt=   5 by node    0
P newkpt: treating      8 bands with npw=     326 for ikpt=   6 by node    0
P newkpt: treating      8 bands with npw=     326 for ikpt=   7 by node    0
P newkpt: treating      8 bands with npw=     332 for ikpt=   8 by node    0


     iter   2DEtotal(Ha)        deltaE(Ha) residm    vres2
-ETOT  1   23.424272523939     -2.429E+02 6.762E-01 1.095E+04
 ETOT  2   13.932299679757     -9.492E+00 1.470E-01 2.649E+02
 ETOT  3   13.618141349531     -3.142E-01 4.293E-03 1.924E+00
 ETOT  4   13.616140461224     -2.001E-03 3.433E-05 2.716E-02
 ETOT  5   13.616146739110      6.278E-06 3.377E-07 2.321E-02
 ETOT  6   13.616105128147     -4.161E-05 1.799E-08 2.275E-05
 ETOT  7   13.616105095036     -3.311E-08 8.819E-10 1.072E-08
 ETOT  8   13.616105095033     -3.752E-12 1.664E-12 5.770E-11
 ETOT  9   13.616105095032     -2.842E-13 6.438E-14 1.597E-13
 ETOT 10   13.616105095032     -1.705E-13 2.702E-16 1.601E-15
 ETOT 11   13.616105095032      8.527E-14 9.456E-17 3.254E-17

 At SCF step   11   max residual=  9.46E-17 < tolwfr=  1.00E-16 =>converged.
================================================================================

 ----iterations are completed or convergence reached----

 Mean square residual over all n,k,spin=   4.4408E-17; max=  9.4558E-17
   0.0000  0.0000  0.0000    1  6.36086E-17 kpt; spin; max resid(k); each band:
  2.86E-17 1.77E-17 1.83E-17 2.16E-17 1.82E-17 3.31E-17 4.06E-17 6.36E-17
   0.5000  0.0000  0.0000    1  9.45579E-17 kpt; spin; max resid(k); each band:
  3.50E-17 2.07E-17 4.44E-17 2.68E-17 7.91E-17 3.57E-17 2.93E-17 9.46E-17
   0.0000  0.5000  0.0000    1  6.07242E-17 kpt; spin; max resid(k); each band:
  6.07E-17 2.11E-17 2.02E-17 2.73E-17 4.15E-17 4.03E-17 2.45E-17 1.41E-17
   0.5000  0.5000  0.0000    1  9.24491E-17 kpt; spin; max resid(k); each band:
  1.36E-17 7.32E-17 5.23E-17 3.59E-17 3.40E-17 9.24E-17 5.22E-17 6.18E-17
   0.0000  0.0000  0.5000    1  8.90589E-17 kpt; spin; max resid(k); each band:
  3.05E-17 2.02E-17 3.88E-17 2.84E-17 8.91E-17 3.74E-17 2.77E-17 1.68E-17
   0.5000  0.0000  0.5000    1  9.00619E-17 kpt; spin; max resid(k); each band:
  7.82E-17 8.93E-17 9.01E-17 2.21E-17 1.54E-17 8.98E-17 8.21E-17 4.35E-17
   0.0000  0.5000  0.5000    1  8.54853E-17 kpt; spin; max resid(k); each band:
  1.25E-17 7.97E-17 3.85E-17 4.49E-17 4.58E-17 8.59E-18 6.27E-17 8.55E-17
   0.5000  0.5000  0.5000    1  9.31375E-17 kpt; spin; max resid(k); each band:
  4.65E-17 2.05E-17 2.28E-17 2.72E-17 7.76E-17 3.36E-17 9.31E-17 7.08E-17

 Thirteen components of 2nd-order total energy (hartree) are
 1,2,3: 0th-order hamiltonian combined with 1st-order wavefunctions
     kin0=   3.26888679E+02 eigvalue=  -1.90378025E+01  local=  -1.67058756E+02
 4,5,6: 1st-order hamiltonian combined with 1st and 0th-order wfs
 loc psp =  -1.75225008E+02  Hartree=   2.62601931E+01     xc=  -9.09588873E+00
 note that "loc psp" includes a xc core correction that could be resolved
 7,8,9: eventually, occupation + non-local contributions
    edocc=   1.24070022E+01     enl0=   8.23401828E+01   enl1=  -3.30182213E+02
 1-9 gives the relaxation energy (to be shifted if some occ is /=2.0)
   erelax=  -2.52703610E+02
 10,11,12 Non-relaxation  contributions : frozen-wavefunctions and Ewald
 fr.local=   6.55955892E+01 fr.nonlo=   1.81941247E+02  Ewald=   1.99958120E+01
 13,14 Frozen wf xc core corrections (1) and (2)
 frxc 1  =  -1.06811382E+01  frxc 2 =   9.46820547E+00
 Resulting in :
 2DEtotal=    0.1361610510E+02 Ha. Also 2DEtotal=    0.370513062419E+03 eV
    (2DErelax=   -2.5270361032E+02 Ha. 2DEnonrelax=    2.6631971541E+02 Ha)
    (  non-var. 2DEtotal :    1.3616105093E+01 Ha)


--------------------------------------------------------------------------------
 Perturbation wavevector (in red.coord.)   0.000000  0.000000  0.000000
 Perturbation : displacement of atom   1   along direction   3
 The set of symmetries contains only one element for this perturbation.
 symkpt : not enough symmetry to change the number of k points.

--------------------------------------------------------------------------------

-inwffil : will read wavefunctions from disk file t37o_DS1_WFK
- newkpt: read input wf with ikpt,npw=   1     166, make ikpt,npw=   1     331
- newkpt: read input wf with ikpt,npw=   2     166, make ikpt,npw=   2     332
- newkpt: read input wf with ikpt,npw=   3     166, make ikpt,npw=   3     332
- newkpt: read input wf with ikpt,npw=   4     163, make ikpt,npw=   4     326
- newkpt: read input wf with ikpt,npw=   5     166, make ikpt,npw=   5     332
- newkpt: read input wf with ikpt,npw=   6     163, make ikpt,npw=   6     326
- newkpt: read input wf with ikpt,npw=   7     163, make ikpt,npw=   7     326
- newkpt: read input wf with ikpt,npw=   8     166, make ikpt,npw=   8     332

--------------------------------------------------------------------------------

-inwffil : will read wavefunctions from disk file t37o_DS1_WFK
- newkpt: read input wf with ikpt,npw=   1     166, make ikpt,npw=   1     331
- newkpt: read input wf with ikpt,npw=   2     166, make ikpt,npw=   2     332
- newkpt: read input wf with ikpt,npw=   3     166, make ikpt,npw=   3     332
- newkpt: read input wf with ikpt,npw=   4     163, make ikpt,npw=   4     326
- newkpt: read input wf with ikpt,npw=   5     166, make ikpt,npw=   5     332
- newkpt: read input wf with ikpt,npw=   6     163, make ikpt,npw=   6     326
- newkpt: read input wf with ikpt,npw=   7     163, make ikpt,npw=   7     326
- newkpt: read input wf with ikpt,npw=   8     166, make ikpt,npw=   8     332

 Initialisation of the first-order wave-functions :
  ireadwf=   0
P newkpt: treating      8 bands with npw=     331 for ikpt=   1 by node    0
P newkpt: treating      8 bands with npw=     332 for ikpt=   2 by node    0
P newkpt: treating      8 bands with npw=     332 for ikpt=   3 by node    0
P newkpt: treating      8 bands with npw=     326 for ikpt=   4 by node    0
P newkpt: treating      8 bands with npw=     332 for ikpt=   5 by node    0
P newkpt: treating      8 bands with npw=     326 for ikpt=   6 by node    0
P newkpt: treating      8 bands with npw=     326 for ikpt=   7 by node    0
P newkpt: treating      8 bands with npw=     332 for ikpt=   8 by node    0


     iter   2DEtotal(Ha)        deltaE(Ha) residm    vres2
-ETOT  1   23.427746491375     -2.429E+02 7.932E-01 1.095E+04
 ETOT  2   13.932563820749     -9.495E+00 1.414E-01 2.651E+02
 ETOT  3   13.618114678707     -3.144E-01 4.440E-03 1.908E+00
 ETOT  4   13.616113758653     -2.001E-03 2.012E-05 1.231E-02
 ETOT  5   13.616108606764     -5.152E-06 2.362E-07 2.021E-03
 ETOT  6   13.616105285549     -3.321E-06 3.975E-09 1.612E-04
 ETOT  7   13.616105001235     -2.843E-07 2.830E-10 1.170E-08
 ETOT  8   13.616105001229     -6.139E-12 1.931E-11 4.938E-11
 ETOT  9   13.616105001230      7.674E-13 1.225E-13 1.169E-13
 ETOT 10   13.616105001229     -1.137E-12 7.912E-15 1.406E-15
 ETOT 11   13.616105001229      2.558E-13 9.575E-17 3.308E-17

 At SCF step   11   max residual=  9.58E-17 < tolwfr=  1.00E-16 =>converged.
================================================================================

 ----iterations are completed or convergence reached----

 Mean square residual over all n,k,spin=   3.9324E-17; max=  9.5754E-17
   0.0000  0.0000  0.0000    1  4.85852E-17 kpt; spin; max resid(k); each band:
  3.36E-17 1.21E-17 1.54E-17 1.27E-17 2.36E-17 1.64E-17 2.62E-17 4.86E-17
   0.5000  0.0000  0.0000    1  8.17114E-17 kpt; spin; max resid(k); each band:
  2.78E-17 1.57E-17 3.30E-17 2.61E-17 2.89E-17 2.53E-17 2.81E-17 8.17E-17
   0.0000  0.5000  0.0000    1  7.77485E-17 kpt; spin; max resid(k); each band:
  2.19E-17 1.58E-17 2.95E-17 2.68E-17 2.32E-17 2.87E-17 2.43E-17 7.77E-17
   0.5000  0.5000  0.0000    1  9.57536E-17 kpt; spin; max resid(k); each band:
  5.76E-17 6.18E-17 7.15E-17 1.84E-17 1.20E-17 6.18E-17 9.58E-17 8.09E-17
   0.0000  0.0000  0.5000    1  7.96376E-17 kpt; spin; max resid(k); each band:
  3.39E-17 1.74E-17 1.52E-17 1.95E-17 1.75E-17 2.49E-17 7.96E-17 5.29E-17
   0.5000  0.0000  0.5000    1  8.87821E-17 kpt; spin; max resid(k); each band:
  7.73E-17 7.01E-17 3.50E-17 2.95E-17 2.34E-17 5.96E-17 3.97E-17 8.88E-17
   0.0000  0.5000  0.5000    1  7.55005E-17 kpt; spin; max resid(k); each band:
  7.52E-17 7.55E-17 2.84E-17 2.96E-17 3.36E-17 7.47E-17 6.05E-17 5.94E-17
   0.5000  0.5000  0.5000    1  4.56478E-17 kpt; spin; max resid(k); each band:
  4.21E-17 1.52E-17 2.08E-17 1.62E-17 2.46E-17 2.95E-17 4.56E-17 3.85E-17

 Thirteen components of 2nd-order total energy (hartree) are
 1,2,3: 0th-order hamiltonian combined with 1st-order wavefunctions
     kin0=   3.26888679E+02 eigvalue=  -1.90378025E+01  local=  -1.67058756E+02
 4,5,6: 1st-order hamiltonian combined with 1st and 0th-order wfs
 loc psp =  -1.75225008E+02  Hartree=   2.62601931E+01     xc=  -9.09588873E+00
 note that "loc psp" includes a xc core correction that could be resolved
 7,8,9: eventually, occupation + non-local contributions
    edocc=   1.24070022E+01     enl0=   8.23401827E+01   enl1=  -3.30182213E+02
 1-9 gives the relaxation energy (to be shifted if some occ is /=2.0)
   erelax=  -2.52703610E+02
 10,11,12 Non-relaxation  contributions : frozen-wavefunctions and Ewald
 fr.local=   6.55955892E+01 fr.nonlo=   1.81941247E+02  Ewald=   1.99958120E+01
 13,14 Frozen wf xc core corrections (1) and (2)
 frxc 1  =  -1.06811382E+01  frxc 2 =   9.46820548E+00
 Resulting in :
 2DEtotal=    0.1361610500E+02 Ha. Also 2DEtotal=    0.370513059867E+03 eV
    (2DErelax=   -2.5270361019E+02 Ha. 2DEnonrelax=    2.6631971520E+02 Ha)
    (  non-var. 2DEtotal :    1.3616105005E+01 Ha)


--------------------------------------------------------------------------------
 Perturbation wavevector (in red.coord.)   0.000000  0.000000  0.000000
 Perturbation : displacement of atom   2   along direction   1
 The set of symmetries contains only one element for this perturbation.
 symkpt : not enough symmetry to change the number of k points.

--------------------------------------------------------------------------------

-inwffil : will read wavefunctions from disk file t37o_DS1_WFK
- newkpt: read input wf with ikpt,npw=   1     166, make ikpt,npw=   1     331
- newkpt: read input wf with ikpt,npw=   2     166, make ikpt,npw=   2     332
- newkpt: read input wf with ikpt,npw=   3     166, make ikpt,npw=   3     332
- newkpt: read input wf with ikpt,npw=   4     163, make ikpt,npw=   4     326
- newkpt: read input wf with ikpt,npw=   5     166, make ikpt,npw=   5     332
- newkpt: read input wf with ikpt,npw=   6     163, make ikpt,npw=   6     326
- newkpt: read input wf with ikpt,npw=   7     163, make ikpt,npw=   7     326
- newkpt: read input wf with ikpt,npw=   8     166, make ikpt,npw=   8     332

--------------------------------------------------------------------------------

-inwffil : will read wavefunctions from disk file t37o_DS1_WFK
- newkpt: read input wf with ikpt,npw=   1     166, make ikpt,npw=   1     331
- newkpt: read input wf with ikpt,npw=   2     166, make ikpt,npw=   2     332
- newkpt: read input wf with ikpt,npw=   3     166, make ikpt,npw=   3     332
- newkpt: read input wf with ikpt,npw=   4     163, make ikpt,npw=   4     326
- newkpt: read input wf with ikpt,npw=   5     166, make ikpt,npw=   5     332
- newkpt: read input wf with ikpt,npw=   6     163, make ikpt,npw=   6     326
- newkpt: read input wf with ikpt,npw=   7     163, make ikpt,npw=   7     326
- newkpt: read input wf with ikpt,npw=   8     166, make ikpt,npw=   8     332

 Initialisation of the first-order wave-functions :
  ireadwf=   0
P newkpt: treating      8 bands with npw=     331 for ikpt=   1 by node    0
P newkpt: treating      8 bands with npw=     332 for ikpt=   2 by node    0
P newkpt: treating      8 bands with npw=     332 for ikpt=   3 by node    0
P newkpt: treating      8 bands with npw=     326 for ikpt=   4 by node    0
P newkpt: treating      8 bands with npw=     332 for ikpt=   5 by node    0
P newkpt: treating      8 bands with npw=     326 for ikpt=   6 by node    0
P newkpt: treating      8 bands with npw=     326 for ikpt=   7 by node    0
P newkpt: treating      8 bands with npw=     332 for ikpt=   8 by node    0


     iter   2DEtotal(Ha)        deltaE(Ha) residm    vres2
-ETOT  1   23.417031316383     -2.429E+02 1.592E+00 1.094E+04
 ETOT  2   13.931629800291     -9.485E+00 1.509E-01 2.643E+02
 ETOT  3   13.618157156219     -3.135E-01 4.189E-03 1.935E+00
 ETOT  4   13.616155397821     -2.002E-03 2.464E-05 3.559E-02
 ETOT  5   13.616163057635      7.660E-06 3.681E-07 3.242E-02
 ETOT  6   13.616104931025     -5.813E-05 2.067E-08 1.686E-05
 ETOT  7   13.616104908539     -2.249E-08 1.223E-09 1.063E-08
 ETOT  8   13.616104908535     -3.865E-12 2.068E-12 6.242E-11
 ETOT  9   13.616104908535      1.137E-13 6.418E-14 6.224E-13
 ETOT 10   13.616104908535      1.421E-13 3.184E-16 3.985E-15
 ETOT 11   13.616104908535     -1.705E-13 9.462E-17 5.613E-17

 At SCF step   11   max residual=  9.46E-17 < tolwfr=  1.00E-16 =>converged.
================================================================================

 ----iterations are completed or convergence reached----

 Mean square residual over all n,k,spin=   5.3925E-17; max=  9.4619E-17
   0.0000  0.0000  0.0000    1  8.71707E-17 kpt; spin; max resid(k); each band:
  3.06E-17 5.50E-17 5.88E-17 5.79E-17 7.70E-17 7.55E-17 7.77E-17 8.72E-17
   0.5000  0.0000  0.0000    1  6.68941E-17 kpt; spin; max resid(k); each band:
  6.27E-17 4.56E-17 5.34E-17 6.69E-17 1.53E-17 6.03E-17 4.11E-17 6.44E-17
   0.0000  0.5000  0.0000    1  8.28995E-17 kpt; spin; max resid(k); each band:
  8.00E-17 4.63E-17 8.29E-17 7.97E-17 1.51E-17 8.22E-17 7.72E-17 4.43E-17
   0.5000  0.5000  0.0000    1  8.80122E-17 kpt; spin; max resid(k); each band:
  3.70E-17 3.27E-17 8.80E-17 6.35E-17 5.14E-18 4.56E-18 6.12E-17 5.60E-17
   0.0000  0.0000  0.5000    1  9.46186E-17 kpt; spin; max resid(k); each band:
  6.45E-17 4.91E-17 9.46E-17 6.51E-17 7.18E-17 6.65E-17 6.16E-17 7.53E-17
   0.5000  0.0000  0.5000    1  8.51302E-17 kpt; spin; max resid(k); each band:
  2.73E-17 3.16E-17 9.12E-18 8.51E-17 5.21E-17 9.03E-18 3.34E-17 6.14E-17
   0.0000  0.5000  0.5000    1  8.49288E-17 kpt; spin; max resid(k); each band:
  3.48E-17 2.13E-17 1.82E-17 6.05E-17 2.96E-17 6.23E-17 5.25E-17 8.49E-17
   0.5000  0.5000  0.5000    1  7.31535E-17 kpt; spin; max resid(k); each band:
  6.41E-17 4.73E-17 5.60E-17 7.00E-17 5.84E-17 7.32E-17 1.45E-17 6.06E-17

 Thirteen components of 2nd-order total energy (hartree) are
 1,2,3: 0th-order hamiltonian combined with 1st-order wavefunctions
     kin0=   3.26888679E+02 eigvalue=  -1.90378025E+01  local=  -1.67058756E+02
 4,5,6: 1st-order hamiltonian combined with 1st and 0th-order wfs
 loc psp =  -1.75225008E+02  Hartree=   2.62601931E+01     xc=  -9.09588873E+00
 note that "loc psp" includes a xc core correction that could be resolved
 7,8,9: eventually, occupation + non-local contributions
    edocc=   1.24070022E+01     enl0=   8.23401829E+01   enl1=  -3.30182213E+02
 1-9 gives the relaxation energy (to be shifted if some occ is /=2.0)
   erelax=  -2.52703610E+02
 10,11,12 Non-relaxation  contributions : frozen-wavefunctions and Ewald
 fr.local=   6.55955890E+01 fr.nonlo=   1.81941247E+02  Ewald=   1.99958120E+01
 13,14 Frozen wf xc core corrections (1) and (2)
 frxc 1  =  -1.06811382E+01  frxc 2 =   9.46820547E+00
 Resulting in :
 2DEtotal=    0.1361610491E+02 Ha. Also 2DEtotal=    0.370513057344E+03 eV
    (2DErelax=   -2.5270361021E+02 Ha. 2DEnonrelax=    2.6631971512E+02 Ha)
    (  non-var. 2DEtotal :    1.3616104912E+01 Ha)


--------------------------------------------------------------------------------
 Perturbation wavevector (in red.coord.)   0.000000  0.000000  0.000000
 Perturbation : displacement of atom   2   along direction   2
 The set of symmetries contains only one element for this perturbation.
 symkpt : not enough symmetry to change the number of k points.

--------------------------------------------------------------------------------

-inwffil : will read wavefunctions from disk file t37o_DS1_WFK
- newkpt: read input wf with ikpt,npw=   1     166, make ikpt,npw=   1     331
- newkpt: read input wf with ikpt,npw=   2     166, make ikpt,npw=   2     332
- newkpt: read input wf with ikpt,npw=   3     166, make ikpt,npw=   3     332
- newkpt: read input wf with ikpt,npw=   4     163, make ikpt,npw=   4     326
- newkpt: read input wf with ikpt,npw=   5     166, make ikpt,npw=   5     332
- newkpt: read input wf with ikpt,npw=   6     163, make ikpt,npw=   6     326
- newkpt: read input wf with ikpt,npw=   7     163, make ikpt,npw=   7     326
- newkpt: read input wf with ikpt,npw=   8     166, make ikpt,npw=   8     332

--------------------------------------------------------------------------------

-inwffil : will read wavefunctions from disk file t37o_DS1_WFK
- newkpt: read input wf with ikpt,npw=   1     166, make ikpt,npw=   1     331
- newkpt: read input wf with ikpt,npw=   2     166, make ikpt,npw=   2     332
- newkpt: read input wf with ikpt,npw=   3     166, make ikpt,npw=   3     332
- newkpt: read input wf with ikpt,npw=   4     163, make ikpt,npw=   4     326
- newkpt: read input wf with ikpt,npw=   5     166, make ikpt,npw=   5     332
- newkpt: read input wf with ikpt,npw=   6     163, make ikpt,npw=   6     326
- newkpt: read input wf with ikpt,npw=   7     163, make ikpt,npw=   7     326
- newkpt: read input wf with ikpt,npw=   8     166, make ikpt,npw=   8     332

 Initialisation of the first-order wave-functions :
  ireadwf=   0
P newkpt: treating      8 bands with npw=     331 for ikpt=   1 by node    0
P newkpt: treating      8 bands with npw=     332 for ikpt=   2 by node    0
P newkpt: treating      8 bands with npw=     332 for ikpt=   3 by node    0
P newkpt: treating      8 bands with npw=     326 for ikpt=   4 by node    0
P newkpt: treating      8 bands with npw=     332 for ikpt=   5 by node    0
P newkpt: treating      8 bands with npw=     326 for ikpt=   6 by node    0
P newkpt: treating      8 bands with npw=     326 for ikpt=   7 by node    0
P newkpt: treating      8 bands with npw=     332 for ikpt=   8 by node    0


     iter   2DEtotal(Ha)        deltaE(Ha) residm    vres2
-ETOT  1   23.424260207798     -2.429E+02 6.762E-01 1.095E+04
 ETOT  2   13.932309572099     -9.492E+00 1.470E-01 2.649E+02
 ETOT  3   13.618148173095     -3.142E-01 4.294E-03 1.928E+00
 ETOT  4   13.616147825490     -2.000E-03 3.428E-05 3.129E-02
 ETOT  5   13.616155128216      7.303E-06 3.677E-07 2.792E-02
 ETOT  6   13.616105067064     -5.006E-05 2.018E-08 1.926E-05
 ETOT  7   13.616105040263     -2.680E-08 9.579E-10 1.067E-08
 ETOT  8   13.616105040257     -5.571E-12 1.630E-12 5.703E-11
 ETOT  9   13.616105040258      9.095E-13 5.534E-14 9.360E-14
 ETOT 10   13.616105040258      5.684E-14 2.823E-16 1.161E-15
 ETOT 11   13.616105040259      9.379E-13 9.956E-17 1.763E-17

 At SCF step   11   max residual=  9.96E-17 < tolwfr=  1.00E-16 =>converged.
================================================================================

 ----iterations are completed or convergence reached----

 Mean square residual over all n,k,spin=   4.2038E-17; max=  9.9560E-17
   0.0000  0.0000  0.0000    1  5.31552E-17 kpt; spin; max resid(k); each band:
  2.86E-17 1.38E-17 1.15E-17 1.65E-17 1.42E-17 2.44E-17 3.60E-17 5.32E-17
   0.5000  0.0000  0.0000    1  7.35724E-17 kpt; spin; max resid(k); each band:
  2.90E-17 1.66E-17 3.75E-17 2.00E-17 7.36E-17 3.11E-17 2.36E-17 1.58E-17
   0.0000  0.5000  0.0000    1  8.73719E-17 kpt; spin; max resid(k); each band:
  4.96E-17 1.63E-17 1.56E-17 2.02E-17 4.19E-17 3.28E-17 2.01E-17 8.74E-17
   0.5000  0.5000  0.0000    1  8.22086E-17 kpt; spin; max resid(k); each band:
  8.09E-18 7.95E-17 2.76E-17 4.64E-17 3.73E-17 7.78E-17 3.59E-17 8.22E-17
   0.0000  0.0000  0.5000    1  7.25089E-17 kpt; spin; max resid(k); each band:
  3.01E-17 1.68E-17 3.52E-17 2.09E-17 7.25E-17 3.45E-17 2.45E-17 2.08E-17
   0.5000  0.0000  0.5000    1  8.90284E-17 kpt; spin; max resid(k); each band:
  7.59E-17 8.63E-17 8.20E-17 1.80E-17 1.20E-17 5.41E-17 8.90E-17 7.04E-17
   0.0000  0.5000  0.5000    1  9.35878E-17 kpt; spin; max resid(k); each band:
  9.41E-18 7.80E-17 3.72E-17 3.53E-17 4.98E-17 9.36E-17 8.62E-17 6.52E-17
   0.5000  0.5000  0.5000    1  9.95598E-17 kpt; spin; max resid(k); each band:
  4.84E-17 1.80E-17 1.56E-17 2.60E-17 6.79E-17 2.97E-17 9.96E-17 6.38E-17

 Thirteen components of 2nd-order total energy (hartree) are
 1,2,3: 0th-order hamiltonian combined with 1st-order wavefunctions
     kin0=   3.26888679E+02 eigvalue=  -1.90378025E+01  local=  -1.67058756E+02
 4,5,6: 1st-order hamiltonian combined with 1st and 0th-order wfs
 loc psp =  -1.75225008E+02  Hartree=   2.62601931E+01     xc=  -9.09588873E+00
 note that "loc psp" includes a xc core correction that could be resolved
 7,8,9: eventually, occupation + non-local contributions
    edocc=   1.24070022E+01     enl0=   8.23401830E+01   enl1=  -3.30182213E+02
 1-9 gives the relaxation energy (to be shifted if some occ is /=2.0)
   erelax=  -2.52703610E+02
 10,11,12 Non-relaxation  contributions : frozen-wavefunctions and Ewald
 fr.local=   6.55955891E+01 fr.nonlo=   1.81941247E+02  Ewald=   1.99958120E+01
 13,14 Frozen wf xc core corrections (1) and (2)
 frxc 1  =  -1.06811382E+01  frxc 2 =   9.46820547E+00
 Resulting in :
 2DEtotal=    0.1361610504E+02 Ha. Also 2DEtotal=    0.370513060929E+03 eV
    (2DErelax=   -2.5270361027E+02 Ha. 2DEnonrelax=    2.6631971531E+02 Ha)
    (  non-var. 2DEtotal :    1.3616105039E+01 Ha)


--------------------------------------------------------------------------------
 Perturbation wavevector (in red.coord.)   0.000000  0.000000  0.000000
 Perturbation : displacement of atom   2   along direction   3
 The set of symmetries contains only one element for this perturbation.
 symkpt : not enough symmetry to change the number of k points.

--------------------------------------------------------------------------------

-inwffil : will read wavefunctions from disk file t37o_DS1_WFK
- newkpt: read input wf with ikpt,npw=   1     166, make ikpt,npw=   1     331
- newkpt: read input wf with ikpt,npw=   2     166, make ikpt,npw=   2     332
- newkpt: read input wf with ikpt,npw=   3     166, make ikpt,npw=   3     332
- newkpt: read input wf with ikpt,npw=   4     163, make ikpt,npw=   4     326
- newkpt: read input wf with ikpt,npw=   5     166, make ikpt,npw=   5     332
- newkpt: read input wf with ikpt,npw=   6     163, make ikpt,npw=   6     326
- newkpt: read input wf with ikpt,npw=   7     163, make ikpt,npw=   7     326
- newkpt: read input wf with ikpt,npw=   8     166, make ikpt,npw=   8     332

--------------------------------------------------------------------------------

-inwffil : will read wavefunctions from disk file t37o_DS1_WFK
- newkpt: read input wf with ikpt,npw=   1     166, make ikpt,npw=   1     331
- newkpt: read input wf with ikpt,npw=   2     166, make ikpt,npw=   2     332
- newkpt: read input wf with ikpt,npw=   3     166, make ikpt,npw=   3     332
- newkpt: read input wf with ikpt,npw=   4     163, make ikpt,npw=   4     326
- newkpt: read input wf with ikpt,npw=   5     166, make ikpt,npw=   5     332
- newkpt: read input wf with ikpt,npw=   6     163, make ikpt,npw=   6     326
- newkpt: read input wf with ikpt,npw=   7     163, make ikpt,npw=   7     326
- newkpt: read input wf with ikpt,npw=   8     166, make ikpt,npw=   8     332

 Initialisation of the first-order wave-functions :
  ireadwf=   0
P newkpt: treating      8 bands with npw=     331 for ikpt=   1 by node    0
P newkpt: treating      8 bands with npw=     332 for ikpt=   2 by node    0
P newkpt: treating      8 bands with npw=     332 for ikpt=   3 by node    0
P newkpt: treating      8 bands with npw=     326 for ikpt=   4 by node    0
P newkpt: treating      8 bands with npw=     332 for ikpt=   5 by node    0
P newkpt: treating      8 bands with npw=     326 for ikpt=   6 by node    0
P newkpt: treating      8 bands with npw=     326 for ikpt=   7 by node    0
P newkpt: treating      8 bands with npw=     332 for ikpt=   8 by node    0


     iter   2DEtotal(Ha)        deltaE(Ha) residm    vres2
-ETOT  1   23.427688501669     -2.429E+02 7.932E-01 1.095E+04
 ETOT  2   13.932589257963     -9.495E+00 1.414E-01 2.651E+02
 ETOT  3   13.618115962548     -3.145E-01 4.442E-03 1.909E+00
 ETOT  4   13.616114140629     -2.002E-03 2.015E-05 1.258E-02
 ETOT  5   13.616109298507     -4.842E-06 2.383E-07 2.462E-03
 ETOT  6   13.616105150258     -4.148E-06 4.381E-09 1.419E-04
 ETOT  7   13.616104900935     -2.493E-07 3.160E-10 1.135E-08
 ETOT  8   13.616104900930     -4.604E-12 1.778E-11 5.058E-11
 ETOT  9   13.616104900929     -9.095E-13 1.402E-13 1.120E-13
 ETOT 10   13.616104900930      5.116E-13 8.000E-15 1.286E-15
 ETOT 11   13.616104900929     -3.411E-13 8.681E-17 2.867E-17

 At SCF step   11   max residual=  8.68E-17 < tolwfr=  1.00E-16 =>converged.
================================================================================

 ----iterations are completed or convergence reached----

 Mean square residual over all n,k,spin=   3.7768E-17; max=  8.6812E-17
   0.0000  0.0000  0.0000    1  4.97940E-17 kpt; spin; max resid(k); each band:
  3.75E-17 1.28E-17 1.60E-17 1.20E-17 2.35E-17 1.69E-17 2.54E-17 4.98E-17
   0.5000  0.0000  0.0000    1  3.89584E-17 kpt; spin; max resid(k); each band:
  2.57E-17 1.56E-17 3.27E-17 2.58E-17 2.89E-17 2.20E-17 2.63E-17 3.90E-17
   0.0000  0.5000  0.0000    1  3.66394E-17 kpt; spin; max resid(k); each band:
  2.31E-17 1.59E-17 3.08E-17 2.64E-17 1.94E-17 3.07E-17 2.48E-17 3.66E-17
   0.5000  0.5000  0.0000    1  7.25319E-17 kpt; spin; max resid(k); each band:
  5.27E-17 6.87E-17 7.25E-17 1.96E-17 1.00E-17 6.52E-17 4.58E-17 3.86E-17
   0.0000  0.0000  0.5000    1  7.50948E-17 kpt; spin; max resid(k); each band:
  3.47E-17 1.70E-17 1.54E-17 1.93E-17 1.80E-17 2.49E-17 7.51E-17 6.19E-17
   0.5000  0.0000  0.5000    1  8.68124E-17 kpt; spin; max resid(k); each band:
  8.08E-17 7.63E-17 3.07E-17 3.41E-17 2.34E-17 5.07E-17 8.68E-17 4.13E-17
   0.0000  0.5000  0.5000    1  8.66456E-17 kpt; spin; max resid(k); each band:
  7.29E-17 7.55E-17 2.87E-17 3.08E-17 4.45E-17 7.56E-17 8.66E-17 7.49E-17
   0.5000  0.5000  0.5000    1  4.93215E-17 kpt; spin; max resid(k); each band:
  4.36E-17 1.57E-17 2.35E-17 1.53E-17 2.44E-17 2.75E-17 4.71E-17 4.93E-17

 Thirteen components of 2nd-order total energy (hartree) are
 1,2,3: 0th-order hamiltonian combined with 1st-order wavefunctions
     kin0=   3.26888679E+02 eigvalue=  -1.90378025E+01  local=  -1.67058756E+02
 4,5,6: 1st-order hamiltonian combined with 1st and 0th-order wfs
 loc psp =  -1.75225008E+02  Hartree=   2.62601931E+01     xc=  -9.09588873E+00
 note that "loc psp" includes a xc core correction that could be resolved
 7,8,9: eventually, occupation + non-local contributions
    edocc=   1.24070022E+01     enl0=   8.23401829E+01   enl1=  -3.30182212E+02
 1-9 gives the relaxation energy (to be shifted if some occ is /=2.0)
   erelax=  -2.52703610E+02
 10,11,12 Non-relaxation  contributions : frozen-wavefunctions and Ewald
 fr.local=   6.55955890E+01 fr.nonlo=   1.81941247E+02  Ewald=   1.99958120E+01
 13,14 Frozen wf xc core corrections (1) and (2)
 frxc 1  =  -1.06811382E+01  frxc 2 =   9.46820548E+00
 Resulting in :
 2DEtotal=    0.1361610490E+02 Ha. Also 2DEtotal=    0.370513057137E+03 eV
    (2DErelax=   -2.5270361015E+02 Ha. 2DEnonrelax=    2.6631971505E+02 Ha)
    (  non-var. 2DEtotal :    1.3616104904E+01 Ha)

 Components of second-order derivatives of the electronic energy, EIGR2D.
 For automatic tests, printing the matrix for the first k-point, first band, first atom.
   1   1   1   1   -1.9077337060E+00    0.0000000000E+00
   1   1   2   1   -9.5386685303E-01    0.0000000000E+00
   1   1   3   1   -9.5386685356E-01    0.0000000000E+00
   2   1   1   1   -9.5386685303E-01    0.0000000000E+00
   2   1   2   1   -1.9077337056E+00    0.0000000000E+00
   2   1   3   1   -9.5386685332E-01    0.0000000000E+00
   3   1   1   1   -9.5386685356E-01    0.0000000000E+00
   3   1   2   1   -9.5386685332E-01    0.0000000000E+00
   3   1   3   1   -1.9077337063E+00    0.0000000000E+00
 
 Components of second-order derivatives of the electronic energy, EIGI2D.
 For automatic tests, printing the matrix for the first k-point, first band, first atom.
   1   1   1   1    2.0881084363E-08    0.0000000000E+00
   1   1   2   1    1.0440542273E-08    0.0000000000E+00
   1   1   3   1    1.0440542290E-08    0.0000000000E+00
   2   1   1   1    1.0440542273E-08    0.0000000000E+00
   2   1   2   1    2.0881084397E-08    0.0000000000E+00
   2   1   3   1    1.0440542277E-08    0.0000000000E+00
   3   1   1   1    1.0440542290E-08    0.0000000000E+00
   3   1   2   1    1.0440542277E-08    0.0000000000E+00
   3   1   3   1    2.0881084341E-08    0.0000000000E+00
================================================================================

 ---- first-order wavefunction calculations are completed ----


 ==> Compute Derivative Database <==
  
  2nd-order matrix (non-cartesian coordinates, masses not included,
   asr not included )
     j1       j2             matrix element
  dir pert dir pert     real part     imaginary part
  
   1    1   1    1        13.6161052019         0.0000000000
   1    1   2    1         6.8080526793         0.0000000000
   1    1   3    1         6.8080526655         0.0000000000
   1    1   1    2       -13.6161021256        -0.0000000000
   1    1   2    2        -6.8080510870         0.0000000000
   1    1   3    2        -6.8080510861        -0.0000000000
  
   2    1   1    1         6.8080526356         0.0000000000
   2    1   2    1        13.6161050933         0.0000000000
   2    1   3    1         6.8080526253         0.0000000000
   2    1   1    2        -6.8080511112         0.0000000000
   2    1   2    2       -13.6161021518         0.0000000000
   2    1   3    2        -6.8080510856        -0.0000000000
  
   3    1   1    1         6.8080526849         0.0000000000
   3    1   2    1         6.8080526301         0.0000000000
   3    1   3    1        13.6161050045         0.0000000000
   3    1   1    2        -6.8080510470        -0.0000000000
   3    1   2    2        -6.8080510895        -0.0000000000
   3    1   3    2       -13.6161020919         0.0000000000
  
   1    2   1    1       -13.6161021251         0.0000000000
   1    2   2    1        -6.8080510446        -0.0000000000
   1    2   3    1        -6.8080510696         0.0000000000
   1    2   1    2        13.6161049116         0.0000000000
   1    2   2    2         6.8080525334         0.0000000000
   1    2   3    2         6.8080525405         0.0000000000
  
   2    2   1    1        -6.8080511031        -0.0000000000
   2    2   2    1       -13.6161021497        -0.0000000000
   2    2   3    1        -6.8080510935         0.0000000000
   2    2   1    2         6.8080524934         0.0000000000
   2    2   2    2        13.6161050387         0.0000000000
   2    2   3    2         6.8080525426         0.0000000000
  
   3    2   1    1        -6.8080510297         0.0000000000
   3    2   2    1        -6.8080510654         0.0000000000
   3    2   3    1       -13.6161020907        -0.0000000000
   3    2   1    2         6.8080525457         0.0000000000
   3    2   2    2         6.8080525404         0.0000000000
   3    2   3    2        13.6161049040         0.0000000000
  
  
  Dynamical matrix, in cartesian coordinates,
   if specified in the inputs, asr has been imposed
     j1       j2             matrix element
  dir pert dir pert     real part    imaginary part
  
   1    1   1    1         0.6060154656        -0.0000000000
   1    1   2    1        -0.0000000007        -0.0000000000
   1    1   3    1         0.0000000021         0.0000000000
   1    1   1    2        -0.6060154656         0.0000000000
   1    1   2    2         0.0000000007         0.0000000000
   1    1   3    2        -0.0000000021        -0.0000000000
  
   2    1   1    1         0.0000000012        -0.0000000000
   2    1   2    1         0.6060154638         0.0000000000
   2    1   3    1        -0.0000000001         0.0000000000
   2    1   1    2        -0.0000000012         0.0000000000
   2    1   2    2        -0.6060154638        -0.0000000000
   2    1   3    2         0.0000000001        -0.0000000000
  
   3    1   1    1         0.0000000009         0.0000000000
   3    1   2    1         0.0000000027         0.0000000000
   3    1   3    1         0.6060154667        -0.0000000000
   3    1   1    2        -0.0000000009        -0.0000000000
   3    1   2    2        -0.0000000027        -0.0000000000
   3    1   3    2        -0.6060154667         0.0000000000
  
   1    2   1    1        -0.6060154671        -0.0000000000
   1    2   2    1         0.0000000011        -0.0000000000
   1    2   3    1        -0.0000000014         0.0000000000
   1    2   1    2         0.6060154671         0.0000000000
   1    2   2    2        -0.0000000011         0.0000000000
   1    2   3    2         0.0000000014        -0.0000000000
  
   2    2   1    1         0.0000000005        -0.0000000000
   2    2   2    1        -0.6060154644         0.0000000000
   2    2   3    1         0.0000000012         0.0000000000
   2    2   1    2        -0.0000000005         0.0000000000
   2    2   2    2         0.6060154644        -0.0000000000
   2    2   3    2        -0.0000000012        -0.0000000000
  
   3    2   1    1        -0.0000000001         0.0000000000
   3    2   2    1        -0.0000000032         0.0000000000
   3    2   3    1        -0.6060154666        -0.0000000000
   3    2   1    2         0.0000000001        -0.0000000000
   3    2   2    2         0.0000000032        -0.0000000000
   3    2   3    2         0.6060154666         0.0000000000
 
  Phonon wavevector (reduced coordinates) :  0.00000  0.00000  0.00000
 Phonon energies in Hartree :
   0.000000E+00  0.000000E+00  0.000000E+00  7.440245E-03  7.440245E-03
   7.440245E-03
 Phonon energies in meV     :
-  0.000000E+00  0.000000E+00  0.000000E+00  2.024594E+02  2.024594E+02
-  2.024594E+02
 Phonon frequencies in cm-1    :
-  0.000000E+00  0.000000E+00  0.000000E+00  1.632945E+03  1.632945E+03
-  1.632945E+03
 Phonon frequencies in Thz     :
-  0.000000E+00  0.000000E+00  0.000000E+00  4.895446E+01  4.895446E+01
-  4.895446E+01
 Phonon energies in Kelvin  :
-  0.000000E+00  0.000000E+00  0.000000E+00  2.349441E+03  2.349441E+03
-  2.349441E+03
================================================================================

 ---- T=0 shift of eigenenergies due to electron-phonon interation at q ---- 
 Warning : the total shift must be computed through anaddb,                  
 here, only the contribution of one q point is printed.                      
 Print first the electronic eigenvalues, then the q-dependent Fan shift of eigenvalues.
 Phonons at gamma, also compute the Diagonal Debye-Waller shift of eigenvalues.

 Eigenvalues (hartree) for nkpt=   8  k points:
 kpt#   1, nband=  8, wtk=  0.12500, kpt=  0.0000  0.0000  0.0000 (reduced coord)
  -0.31631   0.48327   0.48327   0.48327   0.68622   0.68622   0.68622   0.99279
 kpt#   2, nband=  8, wtk=  0.12500, kpt=  0.5000  0.0000  0.0000 (reduced coord)
  -0.09487  -0.02093   0.37797   0.37797   0.79181   0.79181   0.82076   1.05137
 kpt#   3, nband=  8, wtk=  0.12500, kpt=  0.0000  0.5000  0.0000 (reduced coord)
  -0.09487  -0.02093   0.37797   0.37797   0.79181   0.79181   0.82076   1.05137
 kpt#   4, nband=  8, wtk=  0.12500, kpt=  0.5000  0.5000  0.0000 (reduced coord)
   0.01154   0.01154   0.24526   0.24526   0.65072   0.65072   1.11343   1.11343
 kpt#   5, nband=  8, wtk=  0.12500, kpt=  0.0000  0.0000  0.5000 (reduced coord)
  -0.09487  -0.02093   0.37797   0.37797   0.79181   0.79181   0.82076   1.05137
 kpt#   6, nband=  8, wtk=  0.12500, kpt=  0.5000  0.0000  0.5000 (reduced coord)
   0.01154   0.01154   0.24526   0.24526   0.65072   0.65072   1.11343   1.11343
 kpt#   7, nband=  8, wtk=  0.12500, kpt=  0.0000  0.5000  0.5000 (reduced coord)
   0.01154   0.01154   0.24526   0.24526   0.65072   0.65072   1.11343   1.11343
 kpt#   8, nband=  8, wtk=  0.12500, kpt=  0.5000  0.5000  0.5000 (reduced coord)
  -0.09487  -0.02093   0.37797   0.37797   0.79181   0.79181   0.82076   1.05137
 Eigenvalues (   eV  ) for nkpt=   8  k points:
 kpt#   1, nband=  8, wtk=  0.12500, kpt=  0.0000  0.0000  0.0000 (reduced coord)
  -8.60718  13.15041  13.15041  13.15041  18.67296  18.67296  18.67296  27.01512
 kpt#   2, nband=  8, wtk=  0.12500, kpt=  0.5000  0.0000  0.0000 (reduced coord)
  -2.58156  -0.56961  10.28513  10.28513  21.54632  21.54632  22.33410  28.60917
 kpt#   3, nband=  8, wtk=  0.12500, kpt=  0.0000  0.5000  0.0000 (reduced coord)
  -2.58156  -0.56961  10.28513  10.28513  21.54632  21.54632  22.33410  28.60917
 kpt#   4, nband=  8, wtk=  0.12500, kpt=  0.5000  0.5000  0.0000 (reduced coord)
   0.31401   0.31401   6.67387   6.67387  17.70708  17.70708  30.29790  30.29790
 kpt#   5, nband=  8, wtk=  0.12500, kpt=  0.0000  0.0000  0.5000 (reduced coord)
  -2.58156  -0.56961  10.28513  10.28513  21.54632  21.54632  22.33410  28.60917
 kpt#   6, nband=  8, wtk=  0.12500, kpt=  0.5000  0.0000  0.5000 (reduced coord)
   0.31401   0.31401   6.67387   6.67387  17.70708  17.70708  30.29790  30.29790
 kpt#   7, nband=  8, wtk=  0.12500, kpt=  0.0000  0.5000  0.5000 (reduced coord)
   0.31401   0.31401   6.67387   6.67387  17.70708  17.70708  30.29790  30.29790
 kpt#   8, nband=  8, wtk=  0.12500, kpt=  0.5000  0.5000  0.5000 (reduced coord)
  -2.58156  -0.56961  10.28513  10.28513  21.54632  21.54632  22.33410  28.60917


 Fan corrections to eigenvalues at T=0 (hartree) for nkpt=   8  k points:
  (in case of degenerate eigenvalues, averaged derivative)
 kpt#   1, nband=  8, wtk=  0.12500, kpt=  0.0000  0.0000  0.0000 (reduced coord)
  -0.00099  -0.00978  -0.00978  -0.00978  -0.00972  -0.00972  -0.00972  -0.00181
 kpt#   2, nband=  8, wtk=  0.12500, kpt=  0.5000  0.0000  0.0000 (reduced coord)
  -0.00201  -0.00425  -0.00913  -0.00913  -0.01406  -0.01406   0.01014  -0.00947
 kpt#   3, nband=  8, wtk=  0.12500, kpt=  0.0000  0.5000  0.0000 (reduced coord)
  -0.00201  -0.00425  -0.00913  -0.00913  -0.01406  -0.01406   0.01014  -0.00947
 kpt#   4, nband=  8, wtk=  0.12500, kpt=  0.5000  0.5000  0.0000 (reduced coord)
  -0.00396  -0.00396  -0.00723  -0.00723  -0.00378  -0.00378  -0.01323  -0.01323
 kpt#   5, nband=  8, wtk=  0.12500, kpt=  0.0000  0.0000  0.5000 (reduced coord)
  -0.00201  -0.00425  -0.00913  -0.00913  -0.01406  -0.01406   0.01014  -0.00947
 kpt#   6, nband=  8, wtk=  0.12500, kpt=  0.5000  0.0000  0.5000 (reduced coord)
  -0.00396  -0.00396  -0.00723  -0.00723  -0.00378  -0.00378  -0.01323  -0.01323
 kpt#   7, nband=  8, wtk=  0.12500, kpt=  0.0000  0.5000  0.5000 (reduced coord)
  -0.00396  -0.00396  -0.00723  -0.00723  -0.00378  -0.00378  -0.01323  -0.01323
 kpt#   8, nband=  8, wtk=  0.12500, kpt=  0.5000  0.5000  0.5000 (reduced coord)
  -0.00201  -0.00425  -0.00913  -0.00913  -0.01406  -0.01406   0.01014  -0.00947
 Fan corrections to eigenvalues at T=0 (   eV  ) for nkpt=   8  k points:
 kpt#   1, nband=  8, wtk=  0.12500, kpt=  0.0000  0.0000  0.0000 (reduced coord)
  -0.02694  -0.26607  -0.26607  -0.26607  -0.26438  -0.26438  -0.26438  -0.04929
 kpt#   2, nband=  8, wtk=  0.12500, kpt=  0.5000  0.0000  0.0000 (reduced coord)
  -0.05469  -0.11578  -0.24853  -0.24853  -0.38263  -0.38263   0.27596  -0.25773
 kpt#   3, nband=  8, wtk=  0.12500, kpt=  0.0000  0.5000  0.0000 (reduced coord)
  -0.05469  -0.11578  -0.24853  -0.24853  -0.38263  -0.38263   0.27596  -0.25773
 kpt#   4, nband=  8, wtk=  0.12500, kpt=  0.5000  0.5000  0.0000 (reduced coord)
  -0.10769  -0.10769  -0.19666  -0.19666  -0.10298  -0.10298  -0.36003  -0.36003
 kpt#   5, nband=  8, wtk=  0.12500, kpt=  0.0000  0.0000  0.5000 (reduced coord)
  -0.05469  -0.11578  -0.24853  -0.24853  -0.38263  -0.38263   0.27596  -0.25773
 kpt#   6, nband=  8, wtk=  0.12500, kpt=  0.5000  0.0000  0.5000 (reduced coord)
  -0.10769  -0.10769  -0.19666  -0.19666  -0.10298  -0.10298  -0.36003  -0.36003
 kpt#   7, nband=  8, wtk=  0.12500, kpt=  0.0000  0.5000  0.5000 (reduced coord)
  -0.10769  -0.10769  -0.19666  -0.19666  -0.10298  -0.10298  -0.36003  -0.36003
 kpt#   8, nband=  8, wtk=  0.12500, kpt=  0.5000  0.5000  0.5000 (reduced coord)
  -0.05469  -0.11578  -0.24853  -0.24853  -0.38263  -0.38263   0.27596  -0.25773


 DDW corrections to eigenvalues at T=0 (hartree) for nkpt=   8  k points:
  (in case of degenerate eigenvalues, averaged derivative)
 kpt#   1, nband=  8, wtk=  0.12500, kpt=  0.0000  0.0000  0.0000 (reduced coord)
   0.00057   0.01049   0.01049   0.01049   0.00922   0.00922   0.00922   0.00091
 kpt#   2, nband=  8, wtk=  0.12500, kpt=  0.5000  0.0000  0.0000 (reduced coord)
   0.00134   0.00373   0.00940   0.00940   0.00841   0.00841   0.00102   0.00868
 kpt#   3, nband=  8, wtk=  0.12500, kpt=  0.0000  0.5000  0.0000 (reduced coord)
   0.00134   0.00373   0.00940   0.00940   0.00841   0.00841   0.00102   0.00868
 kpt#   4, nband=  8, wtk=  0.12500, kpt=  0.5000  0.5000  0.0000 (reduced coord)
   0.00279   0.00279   0.00771   0.00771   0.00126   0.00126   0.01739   0.01739
 kpt#   5, nband=  8, wtk=  0.12500, kpt=  0.0000  0.0000  0.5000 (reduced coord)
   0.00134   0.00373   0.00940   0.00940   0.00841   0.00841   0.00102   0.00868
 kpt#   6, nband=  8, wtk=  0.12500, kpt=  0.5000  0.0000  0.5000 (reduced coord)
   0.00279   0.00279   0.00771   0.00771   0.00126   0.00126   0.01739   0.01739
 kpt#   7, nband=  8, wtk=  0.12500, kpt=  0.0000  0.5000  0.5000 (reduced coord)
   0.00279   0.00279   0.00771   0.00771   0.00126   0.00126   0.01739   0.01739
 kpt#   8, nband=  8, wtk=  0.12500, kpt=  0.5000  0.5000  0.5000 (reduced coord)
   0.00134   0.00373   0.00940   0.00940   0.00841   0.00841   0.00102   0.00868
 DDW corrections to eigenvalues at T=0 (   eV  ) for nkpt=   8  k points:
 kpt#   1, nband=  8, wtk=  0.12500, kpt=  0.0000  0.0000  0.0000 (reduced coord)
   0.01561   0.28546   0.28546   0.28546   0.25084   0.25084   0.25084   0.02474
 kpt#   2, nband=  8, wtk=  0.12500, kpt=  0.5000  0.0000  0.0000 (reduced coord)
   0.03654   0.10143   0.25591   0.25591   0.22897   0.22897   0.02786   0.23625
 kpt#   3, nband=  8, wtk=  0.12500, kpt=  0.0000  0.5000  0.0000 (reduced coord)
   0.03654   0.10143   0.25591   0.25591   0.22897   0.22897   0.02786   0.23625
 kpt#   4, nband=  8, wtk=  0.12500, kpt=  0.5000  0.5000  0.0000 (reduced coord)
   0.07600   0.07600   0.20971   0.20971   0.03427   0.03427   0.47313   0.47313
 kpt#   5, nband=  8, wtk=  0.12500, kpt=  0.0000  0.0000  0.5000 (reduced coord)
   0.03654   0.10143   0.25591   0.25591   0.22897   0.22897   0.02786   0.23625
 kpt#   6, nband=  8, wtk=  0.12500, kpt=  0.5000  0.0000  0.5000 (reduced coord)
   0.07600   0.07600   0.20971   0.20971   0.03427   0.03427   0.47313   0.47313
 kpt#   7, nband=  8, wtk=  0.12500, kpt=  0.0000  0.5000  0.5000 (reduced coord)
   0.07600   0.07600   0.20971   0.20971   0.03427   0.03427   0.47313   0.47313
 kpt#   8, nband=  8, wtk=  0.12500, kpt=  0.5000  0.5000  0.5000 (reduced coord)
   0.03654   0.10143   0.25591   0.25591   0.22897   0.22897   0.02786   0.23625


 Fan+DDW corrs   to eigenvalues at T=0 (hartree) for nkpt=   8  k points:
  (in case of degenerate eigenvalues, averaged derivative)
 kpt#   1, nband=  8, wtk=  0.12500, kpt=  0.0000  0.0000  0.0000 (reduced coord)
  -0.00042   0.00071   0.00071   0.00071  -0.00050  -0.00050  -0.00050  -0.00090
 kpt#   2, nband=  8, wtk=  0.12500, kpt=  0.5000  0.0000  0.0000 (reduced coord)
  -0.00067  -0.00053   0.00027   0.00027  -0.00565  -0.00565   0.01117  -0.00079
 kpt#   3, nband=  8, wtk=  0.12500, kpt=  0.0000  0.5000  0.0000 (reduced coord)
  -0.00067  -0.00053   0.00027   0.00027  -0.00565  -0.00565   0.01117  -0.00079
 kpt#   4, nband=  8, wtk=  0.12500, kpt=  0.5000  0.5000  0.0000 (reduced coord)
  -0.00116  -0.00116   0.00048   0.00048  -0.00252  -0.00252   0.00416   0.00416
 kpt#   5, nband=  8, wtk=  0.12500, kpt=  0.0000  0.0000  0.5000 (reduced coord)
  -0.00067  -0.00053   0.00027   0.00027  -0.00565  -0.00565   0.01117  -0.00079
 kpt#   6, nband=  8, wtk=  0.12500, kpt=  0.5000  0.0000  0.5000 (reduced coord)
  -0.00116  -0.00116   0.00048   0.00048  -0.00252  -0.00252   0.00416   0.00416
 kpt#   7, nband=  8, wtk=  0.12500, kpt=  0.0000  0.5000  0.5000 (reduced coord)
  -0.00116  -0.00116   0.00048   0.00048  -0.00252  -0.00252   0.00416   0.00416
 kpt#   8, nband=  8, wtk=  0.12500, kpt=  0.5000  0.5000  0.5000 (reduced coord)
  -0.00067  -0.00053   0.00027   0.00027  -0.00565  -0.00565   0.01117  -0.00079
 Fan+DDW corrs   to eigenvalues at T=0 (   eV  ) for nkpt=   8  k points:
 kpt#   1, nband=  8, wtk=  0.12500, kpt=  0.0000  0.0000  0.0000 (reduced coord)
  -0.01133   0.01940   0.01940   0.01940  -0.01354  -0.01354  -0.01354  -0.02455
 kpt#   2, nband=  8, wtk=  0.12500, kpt=  0.5000  0.0000  0.0000 (reduced coord)
  -0.01815  -0.01435   0.00739   0.00739  -0.15365  -0.15365   0.30382  -0.02148
 kpt#   3, nband=  8, wtk=  0.12500, kpt=  0.0000  0.5000  0.0000 (reduced coord)
  -0.01815  -0.01435   0.00739   0.00739  -0.15365  -0.15365   0.30382  -0.02148
 kpt#   4, nband=  8, wtk=  0.12500, kpt=  0.5000  0.5000  0.0000 (reduced coord)
  -0.03168  -0.03168   0.01305   0.01305  -0.06871  -0.06871   0.11311   0.11311
 kpt#   5, nband=  8, wtk=  0.12500, kpt=  0.0000  0.0000  0.5000 (reduced coord)
  -0.01815  -0.01435   0.00739   0.00739  -0.15365  -0.15365   0.30382  -0.02148
 kpt#   6, nband=  8, wtk=  0.12500, kpt=  0.5000  0.0000  0.5000 (reduced coord)
  -0.03168  -0.03168   0.01305   0.01305  -0.06871  -0.06871   0.11311   0.11311
 kpt#   7, nband=  8, wtk=  0.12500, kpt=  0.0000  0.5000  0.5000 (reduced coord)
  -0.03168  -0.03168   0.01305   0.01305  -0.06871  -0.06871   0.11311   0.11311
 kpt#   8, nband=  8, wtk=  0.12500, kpt=  0.5000  0.5000  0.5000 (reduced coord)
  -0.01815  -0.01435   0.00739   0.00739  -0.15365  -0.15365   0.30382  -0.02148

================================================================================
== DATASET  3 ==================================================================
-   nproc =    1

 mkfilename : getwfk/=0, take file _WFK from output of DATASET   1.

 mkfilename : getden/=0, take file _DEN from output of DATASET   1.

 Exchange-correlation functional for the present dataset will be:
  LDA: new Teter (4/93) with spin-polarized option - ixc=1
 Citation for XC functional:
  S. Goedecker, M. Teter, J. Huetter, PRB 54, 1703 (1996)

 Real(R)+Recip(G) space primitive vectors, cartesian coordinates (Bohr,Bohr^-1):
 R(1)=  0.0000000  3.3517340  3.3517340  G(1)= -0.1491765  0.1491765  0.1491765
 R(2)=  3.3517340  0.0000000  3.3517340  G(2)=  0.1491765 -0.1491765  0.1491765
 R(3)=  3.3517340  3.3517340  0.0000000  G(3)=  0.1491765  0.1491765 -0.1491765
 Unit cell volume ucvol=  7.5307571E+01 bohr^3
 Angles (23,13,12)=  6.00000000E+01  6.00000000E+01  6.00000000E+01 degrees

 getcut: wavevector=  0.0000  0.0000  0.0000  ngfft=  20  20  20
         ecut(hartree)=     20.000   => boxcut(ratio)=   2.09587
--------------------------------------------------------------------------------

-inwffil : will read wavefunctions from disk file t37o_DS1_WFK
- newkpt: read input wf with ikpt,npw=   4     163, make ikpt,npw=   1     163
- newkpt: read input wf with ikpt,npw=   3     166, make ikpt,npw=   2     332
[...]
 kpt#   6, nband=  8, wtk=  0.12500, kpt=  0.5000  0.0000  0.5000 (reduced coord)
   0.01154   0.01154   0.24526   0.24526   0.65072   0.65072   1.11343   1.11343
 kpt#   7, nband=  8, wtk=  0.12500, kpt=  0.0000  0.5000  0.5000 (reduced coord)
   0.01154   0.01154   0.24526   0.24526   0.65072   0.65072   1.11343   1.11343
 kpt#   8, nband=  8, wtk=  0.12500, kpt=  0.5000  0.5000  0.5000 (reduced coord)
  -0.09487  -0.02093   0.37797   0.37797   0.79181   0.79181   0.82076   1.05137
 Eigenvalues (   eV  ) for nkpt=   8  k points:
 kpt#   1, nband=  8, wtk=  0.12500, kpt=  0.0000  0.0000  0.0000 (reduced coord)
  -8.60718  13.15041  13.15041  13.15041  18.67296  18.67296  18.67296  27.01512
 kpt#   2, nband=  8, wtk=  0.12500, kpt=  0.5000  0.0000  0.0000 (reduced coord)
  -2.58156  -0.56961  10.28513  10.28513  21.54632  21.54632  22.33410  28.60917
 kpt#   3, nband=  8, wtk=  0.12500, kpt=  0.0000  0.5000  0.0000 (reduced coord)
  -2.58156  -0.56961  10.28513  10.28513  21.54632  21.54632  22.33410  28.60917
 kpt#   4, nband=  8, wtk=  0.12500, kpt=  0.5000  0.5000  0.0000 (reduced coord)
   0.31401   0.31401   6.67387   6.67387  17.70708  17.70708  30.29790  30.29790
 kpt#   5, nband=  8, wtk=  0.12500, kpt=  0.0000  0.0000  0.5000 (reduced coord)
  -2.58156  -0.56961  10.28513  10.28513  21.54632  21.54632  22.33410  28.60917
 kpt#   6, nband=  8, wtk=  0.12500, kpt=  0.5000  0.0000  0.5000 (reduced coord)
   0.31401   0.31401   6.67387   6.67387  17.70708  17.70708  30.29790  30.29790
 kpt#   7, nband=  8, wtk=  0.12500, kpt=  0.0000  0.5000  0.5000 (reduced coord)
   0.31401   0.31401   6.67387   6.67387  17.70708  17.70708  30.29790  30.29790
 kpt#   8, nband=  8, wtk=  0.12500, kpt=  0.5000  0.5000  0.5000 (reduced coord)
  -2.58156  -0.56961  10.28513  10.28513  21.54632  21.54632  22.33410  28.60917


 Fan corrections to eigenvalues at T=0 (hartree) for nkpt=   8  k points:
  (in case of degenerate eigenvalues, averaged derivative)
 kpt#   1, nband=  8, wtk=  0.12500, kpt=  0.0000  0.0000  0.0000 (reduced coord)
  -0.00081  -0.00570  -0.00570  -0.00570   0.00541   0.00541   0.00541  -0.00811
 kpt#   2, nband=  8, wtk=  0.12500, kpt=  0.5000  0.0000  0.0000 (reduced coord)
  -0.00130  -0.00166  -0.00664  -0.00664  -0.01766  -0.01766   0.02205  -0.00261
 kpt#   3, nband=  8, wtk=  0.12500, kpt=  0.0000  0.5000  0.0000 (reduced coord)
  -0.00130  -0.00166  -0.00664  -0.00664  -0.01766  -0.01766   0.02205  -0.00261
 kpt#   4, nband=  8, wtk=  0.12500, kpt=  0.5000  0.5000  0.0000 (reduced coord)
  -0.00173  -0.00173  -0.00619  -0.00619  -0.01734  -0.01734  -0.00769  -0.00769
 kpt#   5, nband=  8, wtk=  0.12500, kpt=  0.0000  0.0000  0.5000 (reduced coord)
  -0.00302  -0.00170  -0.00507  -0.00507  -0.00374  -0.00374  -0.00165  -0.00558
 kpt#   6, nband=  8, wtk=  0.12500, kpt=  0.5000  0.0000  0.5000 (reduced coord)
  -0.00222  -0.00222  -0.00476  -0.00476  -0.00096  -0.00096  -0.00802  -0.00802
 kpt#   7, nband=  8, wtk=  0.12500, kpt=  0.0000  0.5000  0.5000 (reduced coord)
  -0.00222  -0.00222  -0.00476  -0.00476  -0.00096  -0.00096  -0.00802  -0.00802
 kpt#   8, nband=  8, wtk=  0.12500, kpt=  0.5000  0.5000  0.5000 (reduced coord)
  -0.00302  -0.00170  -0.00507  -0.00507  -0.00374  -0.00374  -0.00165  -0.00558
 Fan corrections to eigenvalues at T=0 (   eV  ) for nkpt=   8  k points:
 kpt#   1, nband=  8, wtk=  0.12500, kpt=  0.0000  0.0000  0.0000 (reduced coord)
  -0.02197  -0.15515  -0.15515  -0.15515   0.14732   0.14732   0.14732  -0.22081
 kpt#   2, nband=  8, wtk=  0.12500, kpt=  0.5000  0.0000  0.0000 (reduced coord)
  -0.03536  -0.04504  -0.18071  -0.18071  -0.48062  -0.48062   0.60008  -0.07105
 kpt#   3, nband=  8, wtk=  0.12500, kpt=  0.0000  0.5000  0.0000 (reduced coord)
  -0.03536  -0.04504  -0.18071  -0.18071  -0.48062  -0.48062   0.60008  -0.07105
 kpt#   4, nband=  8, wtk=  0.12500, kpt=  0.5000  0.5000  0.0000 (reduced coord)
  -0.04700  -0.04700  -0.16848  -0.16848  -0.47188  -0.47188  -0.20934  -0.20934
 kpt#   5, nband=  8, wtk=  0.12500, kpt=  0.0000  0.0000  0.5000 (reduced coord)
  -0.08229  -0.04635  -0.13807  -0.13807  -0.10177  -0.10177  -0.04497  -0.15188
 kpt#   6, nband=  8, wtk=  0.12500, kpt=  0.5000  0.0000  0.5000 (reduced coord)
  -0.06044  -0.06044  -0.12944  -0.12944  -0.02621  -0.02621  -0.21818  -0.21818
 kpt#   7, nband=  8, wtk=  0.12500, kpt=  0.0000  0.5000  0.5000 (reduced coord)
  -0.06044  -0.06044  -0.12944  -0.12944  -0.02621  -0.02621  -0.21818  -0.21818
 kpt#   8, nband=  8, wtk=  0.12500, kpt=  0.5000  0.5000  0.5000 (reduced coord)
  -0.08229  -0.04635  -0.13807  -0.13807  -0.10177  -0.10177  -0.04497  -0.15188


 DDW corrections to eigenvalues at T=0 (hartree) for nkpt=   8  k points:
  (in case of degenerate eigenvalues, averaged derivative)
 kpt#   1, nband=  8, wtk=  0.12500, kpt=  0.0000  0.0000  0.0000 (reduced coord)
   0.00034   0.00613   0.00613   0.00613   0.00538   0.00538   0.00538   0.00053
 kpt#   2, nband=  8, wtk=  0.12500, kpt=  0.5000  0.0000  0.0000 (reduced coord)
   0.00050   0.00135   0.00685   0.00685   0.00600   0.00600   0.00026   0.00245
 kpt#   3, nband=  8, wtk=  0.12500, kpt=  0.0000  0.5000  0.0000 (reduced coord)
   0.00050   0.00135   0.00685   0.00685   0.00600   0.00600   0.00026   0.00245
 kpt#   4, nband=  8, wtk=  0.12500, kpt=  0.5000  0.5000  0.0000 (reduced coord)
   0.00096   0.00096   0.00569   0.00569   0.00023   0.00023   0.01261   0.01261
 kpt#   5, nband=  8, wtk=  0.12500, kpt=  0.0000  0.0000  0.5000 (reduced coord)
   0.00106   0.00301   0.00414   0.00414   0.00383   0.00383   0.00094   0.00769
 kpt#   6, nband=  8, wtk=  0.12500, kpt=  0.5000  0.0000  0.5000 (reduced coord)
   0.00196   0.00196   0.00390   0.00390   0.00099   0.00099   0.00892   0.00892
 kpt#   7, nband=  8, wtk=  0.12500, kpt=  0.0000  0.5000  0.5000 (reduced coord)
   0.00196   0.00196   0.00390   0.00390   0.00099   0.00099   0.00892   0.00892
 kpt#   8, nband=  8, wtk=  0.12500, kpt=  0.5000  0.5000  0.5000 (reduced coord)
   0.00106   0.00301   0.00414   0.00414   0.00383   0.00383   0.00094   0.00769
 DDW corrections to eigenvalues at T=0 (   eV  ) for nkpt=   8  k points:
 kpt#   1, nband=  8, wtk=  0.12500, kpt=  0.0000  0.0000  0.0000 (reduced coord)
   0.00912   0.16669   0.16669   0.16669   0.14648   0.14648   0.14648   0.01445
 kpt#   2, nband=  8, wtk=  0.12500, kpt=  0.5000  0.0000  0.0000 (reduced coord)
   0.01372   0.03667   0.18635   0.18635   0.16327   0.16327   0.00695   0.06664
 kpt#   3, nband=  8, wtk=  0.12500, kpt=  0.0000  0.5000  0.0000 (reduced coord)
   0.01372   0.03667   0.18635   0.18635   0.16327   0.16327   0.00695   0.06664
 kpt#   4, nband=  8, wtk=  0.12500, kpt=  0.5000  0.5000  0.0000 (reduced coord)
   0.02621   0.02621   0.15494   0.15494   0.00619   0.00619   0.34315   0.34315
 kpt#   5, nband=  8, wtk=  0.12500, kpt=  0.0000  0.0000  0.5000 (reduced coord)
   0.02895   0.08178   0.11252   0.11252   0.10414   0.10414   0.02558   0.20927
 kpt#   6, nband=  8, wtk=  0.12500, kpt=  0.5000  0.0000  0.5000 (reduced coord)
   0.05347   0.05347   0.10622   0.10622   0.02693   0.02693   0.24285   0.24285
 kpt#   7, nband=  8, wtk=  0.12500, kpt=  0.0000  0.5000  0.5000 (reduced coord)
   0.05347   0.05347   0.10622   0.10622   0.02693   0.02693   0.24285   0.24285
 kpt#   8, nband=  8, wtk=  0.12500, kpt=  0.5000  0.5000  0.5000 (reduced coord)
   0.02895   0.08178   0.11252   0.11252   0.10414   0.10414   0.02558   0.20927


 Fan+DDW corrs   to eigenvalues at T=0 (hartree) for nkpt=   8  k points:
  (in case of degenerate eigenvalues, averaged derivative)
 kpt#   1, nband=  8, wtk=  0.12500, kpt=  0.0000  0.0000  0.0000 (reduced coord)
  -0.00047   0.00042   0.00042   0.00042   0.01080   0.01080   0.01080  -0.00758
 kpt#   2, nband=  8, wtk=  0.12500, kpt=  0.5000  0.0000  0.0000 (reduced coord)
  -0.00080  -0.00031   0.00021   0.00021  -0.01166  -0.01166   0.02231  -0.00016
 kpt#   3, nband=  8, wtk=  0.12500, kpt=  0.0000  0.5000  0.0000 (reduced coord)
  -0.00080  -0.00031   0.00021   0.00021  -0.01166  -0.01166   0.02231  -0.00016
 kpt#   4, nband=  8, wtk=  0.12500, kpt=  0.5000  0.5000  0.0000 (reduced coord)
  -0.00076  -0.00076  -0.00050  -0.00050  -0.01711  -0.01711   0.00492   0.00492
 kpt#   5, nband=  8, wtk=  0.12500, kpt=  0.0000  0.0000  0.5000 (reduced coord)
  -0.00196   0.00130  -0.00094  -0.00094   0.00009   0.00009  -0.00071   0.00211
 kpt#   6, nband=  8, wtk=  0.12500, kpt=  0.5000  0.0000  0.5000 (reduced coord)
  -0.00026  -0.00026  -0.00085  -0.00085   0.00003   0.00003   0.00091   0.00091
 kpt#   7, nband=  8, wtk=  0.12500, kpt=  0.0000  0.5000  0.5000 (reduced coord)
  -0.00026  -0.00026  -0.00085  -0.00085   0.00003   0.00003   0.00091   0.00091
 kpt#   8, nband=  8, wtk=  0.12500, kpt=  0.5000  0.5000  0.5000 (reduced coord)
  -0.00196   0.00130  -0.00094  -0.00094   0.00009   0.00009  -0.00071   0.00211
 Fan+DDW corrs   to eigenvalues at T=0 (   eV  ) for nkpt=   8  k points:
 kpt#   1, nband=  8, wtk=  0.12500, kpt=  0.0000  0.0000  0.0000 (reduced coord)
  -0.01285   0.01154   0.01154   0.01154   0.29380   0.29380   0.29380  -0.20637
 kpt#   2, nband=  8, wtk=  0.12500, kpt=  0.5000  0.0000  0.0000 (reduced coord)
  -0.02164  -0.00837   0.00564   0.00564  -0.31735  -0.31735   0.60704  -0.00441
 kpt#   3, nband=  8, wtk=  0.12500, kpt=  0.0000  0.5000  0.0000 (reduced coord)
  -0.02164  -0.00837   0.00564   0.00564  -0.31735  -0.31735   0.60704  -0.00441
 kpt#   4, nband=  8, wtk=  0.12500, kpt=  0.5000  0.5000  0.0000 (reduced coord)
  -0.02079  -0.02079  -0.01354  -0.01354  -0.46569  -0.46569   0.13381   0.13381
 kpt#   5, nband=  8, wtk=  0.12500, kpt=  0.0000  0.0000  0.5000 (reduced coord)
  -0.05334   0.03543  -0.02555  -0.02555   0.00238   0.00238  -0.01939   0.05739
 kpt#   6, nband=  8, wtk=  0.12500, kpt=  0.5000  0.0000  0.5000 (reduced coord)
  -0.00698  -0.00698  -0.02322  -0.02322   0.00071   0.00071   0.02467   0.02467
 kpt#   7, nband=  8, wtk=  0.12500, kpt=  0.0000  0.5000  0.5000 (reduced coord)
  -0.00698  -0.00698  -0.02322  -0.02322   0.00071   0.00071   0.02467   0.02467
 kpt#   8, nband=  8, wtk=  0.12500, kpt=  0.5000  0.5000  0.5000 (reduced coord)
  -0.05334   0.03543  -0.02555  -0.02555   0.00238   0.00238  -0.01939   0.05739

== END DATASET(S) ==============================================================
================================================================================
  
 -outvars: echo values of variables after computation  --------
            acell      6.7034680500E+00  6.7034680500E+00  6.7034680500E+00 Bohr
              amu      1.20110000E+01
          bdeigrf           8
           diemac      6.00000000E+00
             ecut      2.00000000E+01 Hartree
           ecutsm      5.00000000E-01 Hartree
    elph2_imagden      3.67493254E-03 Hartree
           enunit           2
           etotal1    -1.1946966457E+01
           etotal2     1.3616104901E+01
           etotal4     8.5167354579E+00
            fcart1    -6.6210183424E-09 -9.1927226148E-09 -4.1425717035E-11
                       6.6210183424E-09  9.1927226148E-09  4.1425717035E-11
            fcart2     0.0000000000E+00  0.0000000000E+00  0.0000000000E+00
                       0.0000000000E+00  0.0000000000E+00  0.0000000000E+00
            fcart4     0.0000000000E+00  0.0000000000E+00  0.0000000000E+00
                       0.0000000000E+00  0.0000000000E+00  0.0000000000E+00
-          fftalg         112
           getden1          0
           getden2          1
           getden3          1
           getden4          1
   getgam_eig2nkq1          0
   getgam_eig2nkq2          0
   getgam_eig2nkq3          0
   getgam_eig2nkq4          2
           getwfk1          0
           getwfk2          1
           getwfk3          1
           getwfk4          1
           getwfq1          0
           getwfq2          0
           getwfq3          0
           getwfq4         -1
          ieig2rf1          0
          ieig2rf2          1
          ieig2rf3          0
          ieig2rf4          1
             iscf1          7
             iscf2          7
             iscf3         -2
             iscf4          7
           istwfk1       2    3    6    7    4    5    8    9
           istwfk2       1    1    1    1    1    1    1    1
           istwfk3       7    0    0    0    9    0    0    0
           istwfk4       1    1    1    1    1    1    1    1
           jdtset        1    2    3    4
              kpt      0.00000000E+00  0.00000000E+00  0.00000000E+00
                       5.00000000E-01  0.00000000E+00  0.00000000E+00
                       0.00000000E+00  5.00000000E-01  0.00000000E+00
                       5.00000000E-01  5.00000000E-01  0.00000000E+00
                       0.00000000E+00  0.00000000E+00  5.00000000E-01
                       5.00000000E-01  0.00000000E+00  5.00000000E-01
                       0.00000000E+00  5.00000000E-01  5.00000000E-01
                       5.00000000E-01  5.00000000E-01  5.00000000E-01
           kptopt           3
         kptrlatt        2    0    0      0    2    0      0    0    2
          kptrlen      9.48013543E+00
P           mkmem           8
P          mkqmem           8
P          mk1mem           8
            natom           2
            nband           8
           nbdbuf1          0
           nbdbuf2          0
           nbdbuf3          2
           nbdbuf4          0
           ndtset           4
            ngfft          20      20      20
             nkpt           8
             nqpt1          0
             nqpt2          1
             nqpt3          1
             nqpt4          1
             nsym           1
           ntypat           1
              occ      2.000000  2.000000  2.000000  2.000000  0.000000  0.000000
                       0.000000  0.000000
        optdriver1          0
        optdriver2          1
        optdriver3          0
        optdriver4          1
              qpt1     0.00000000E+00  0.00000000E+00  0.00000000E+00
              qpt2     0.00000000E+00  0.00000000E+00  0.00000000E+00
              qpt3     5.00000000E-01  5.00000000E-01  0.00000000E+00
              qpt4     5.00000000E-01  5.00000000E-01  0.00000000E+00
            rfasr           1
          rfatpol           1       2
            rfdir           1       1       1
           rfphon1          0
           rfphon2          1
           rfphon3          0
           rfphon4          1
            rprim      0.0000000000E+00  5.0000000000E-01  5.0000000000E-01
                       5.0000000000E-01  0.0000000000E+00  5.0000000000E-01
                       5.0000000000E-01  5.0000000000E-01  0.0000000000E+00
          spgroup           1
           strten1    -2.0481592759E-03 -2.0481592586E-03 -2.0481592604E-03
                      -8.8974374038E-11 -1.0880627241E-10 -3.2109696122E-11
           strten2     0.0000000000E+00  0.0000000000E+00  0.0000000000E+00
                       0.0000000000E+00  0.0000000000E+00  0.0000000000E+00
           strten4     0.0000000000E+00  0.0000000000E+00  0.0000000000E+00
                       0.0000000000E+00  0.0000000000E+00  0.0000000000E+00
           tolwfr      1.00000000E-16
            typat      1  1
              wtk        0.12500    0.12500    0.12500    0.12500    0.12500    0.12500
                         0.12500    0.12500
           xangst      0.0000000000E+00  0.0000000000E+00  0.0000000000E+00
                       8.8683062764E-01  8.8683062764E-01  8.8683062764E-01
            xcart      0.0000000000E+00  0.0000000000E+00  0.0000000000E+00
                       1.6758670125E+00  1.6758670125E+00  1.6758670125E+00
             xred      0.0000000000E+00  0.0000000000E+00  0.0000000000E+00
                       2.5000000000E-01  2.5000000000E-01  2.5000000000E-01
            znucl        6.00000

================================================================================


- Timing analysis has been suppressed with timopt=0



================================================================================

 Suggested references for the acknowledgment of ABINIT usage.

 The users of ABINIT have little formal obligations with respect to the ABINIT group
 (those specified in the GNU General Public License, http://www.gnu.org/copyleft/gpl.txt).
 However, it is common practice in the scientific literature,
 to acknowledge the efforts of people that have made the research possible.
 In this spirit, please find below suggested citations of work written by ABINIT developers,
 corresponding to implementations inside of ABINIT that you have used in the present run.
 Note also that it will be of great value to readers of publications presenting these results,
 to read papers enabling them to understand the theoretical formalism and details
 of the ABINIT implementation.
 For information on why they are suggested, see also http://www.abinit.org/about/?text=acknowledgments.

 [1] First-principles responses of solids to atomic displacements and homogeneous electric fields:,
 implementation of a conjugate-gradient algorithm. X. Gonze, Phys. Rev. B55, 10337 (1997).
 Comment : Non-vanishing rfphon and/or rfelfd, in the norm-conserving case.

 [2] Dynamical matrices, Born effective charges, dielectric permittivity tensors, and ,
 interatomic force constants from density-functional perturbation theory,
 X. Gonze and C. Lee, Phys. Rev. B55, 10355 (1997).
 Comment : Non-vanishing rfphon and/or rfelfd, in the norm-conserving case.

 [3] ABINIT : First-principles approach of materials and nanosystem properties.
 X. Gonze, B. Amadon, P.-M. Anglade, J.-M. Beuken, F. Bottin, P. Boulanger, F. Bruneval,
 D. Caliste, R. Caracas, M. Cote, T. Deutsch, L. Genovese, Ph. Ghosez, M. Giantomassi
 S. Goedecker, D.R. Hamann, P. Hermet, F. Jollet, G. Jomard, S. Leroux, M. Mancini, S. Mazevet,
 M.J.T. Oliveira, G. Onida, Y. Pouillon, T. Rangel, G.-M. Rignanese, D. Sangalli, R. Shaltaf,
 M. Torrent, M.J. Verstraete, G. Zerah, J.W. Zwanziger
 Computer Phys. Comm. 180, 2582-2615 (2009).
 Comment : the third generic paper describing the ABINIT project.
 Note that a version of this paper, that is not formatted for Computer Phys. Comm. 
 is available at http://www.abinit.org/about/ABINIT_CPC_v10.pdf .
 The licence allows the authors to put it on the Web.

 [4] A brief introduction to the ABINIT software package.
 X. Gonze, G.-M. Rignanese, M. Verstraete, J.-M. Beuken, Y. Pouillon, R. Caracas, F. Jollet,
 M. Torrent, G. Zerah, M. Mikami, Ph. Ghosez, M. Veithen, J.-Y. Raty, V. Olevano, F. Bruneval,
 L. Reining, R. Godby, G. Onida, D.R. Hamann, and D.C. Allan.
 Z. Kristallogr. 220, 558-562 (2005).
 Comment : the second generic paper describing the ABINIT project. Note that this paper
 should be cited especially if you are using the GW part of ABINIT, as several authors
 of this part are not in the list of authors of the first or third paper.
 The .pdf of the latter paper is available at http://www.abinit.org/about/zfk_0505-06_558-562.pdf.
 Note that it should not redistributed (Copyright by Oldenburg Wissenshaftverlag,
 the licence allows the authors to put it on the Web).


 And optionally :

 [5] First-principles computation of material properties : the ABINIT software project. 
 X. Gonze, J.-M. Beuken, R. Caracas, F. Detraux, M. Fuchs, G.-M. Rignanese, L. Sindic,
 M. Verstraete, G. Zerah, F. Jollet, M. Torrent, A. Roy, M. Mikami, Ph. Ghosez, J.-Y. Raty, D.C. Allan.
 Computational Materials Science 25, 478-492 (2002). http://dx.doi.org/10.1016/S0927-0256(02)00325-7
 Comment : the original paper describing the ABINIT project.
-
- Proc.   0 individual time (sec): cpu=         14.1  wall=         15.4

================================================================================

 Calculation completed.
.Delivered  241 WARNINGs and  12 COMMENTs to log file.
+Overall time at end (sec) : cpu=         14.1  wall=         15.4
