
.Version 7.9.3 of ABINIT 
.(MPI version, prepared for a x86_64_linux_gnu4.7 computer) 

.Copyright (C) 1998-2014 ABINIT group . 
 ABINIT comes with ABSOLUTELY NO WARRANTY.
 It is free software, and you are welcome to redistribute it
 under certain conditions (GNU General Public License,
 see ~abinit/COPYING or http://www.gnu.org/copyleft/gpl.txt).

 ABINIT is a project of the Universite Catholique de Louvain,
 Corning Inc. and other collaborators, see ~abinit/doc/developers/contributors.txt .
 Please read ~abinit/doc/users/acknowledgments.html for suggested
 acknowledgments of the ABINIT effort.
 For more information, see http://www.abinit.org .

.Starting date : Sat 30 Aug 2014.
- ( at 22h41 )
  
- input  file    -> t50.in
- output file    -> t50.out
- root for input  files -> t50i
- root for output files -> t50o


 DATASET    1 : space group P1 (#  1); Bravais aP (primitive triclinic)
================================================================================
 Values of the parameters that define the memory need for DATASET  1.
   intxc =         0  ionmov =         0    iscf =         7 xclevel =         1
  lmnmax =         1   lnmax =         1   mband =         4  mffmem =         1
P  mgfft =        10   mkmem =         8 mpssoang=         1     mpw =        47
  mqgrid =      3001   natom =         1    nfft =      1000    nkpt =         8
  nloalg =         4  nspden =         1 nspinor =         1  nsppol =         1
    nsym =         1  n1xccc =         0  ntypat =         1  occopt =         1
================================================================================
P This job should need less than                       0.694 Mbytes of memory.
  Rough estimation (10% accuracy) of disk space for files :
_ WF disk file :      0.025 Mbytes ; DEN or POT disk file :      0.010 Mbytes.
================================================================================


 DATASET    2 : space group P1 (#  1); Bravais aP (primitive triclinic)
================================================================================
 Values of the parameters that define the memory need for DATASET  2 (RF).
   intxc =         0    iscf =         7 xclevel =         1  lmnmax =         1
   lnmax =         1   mband =         4  mffmem =         1   mgfft =        10
P  mkmem =         8  mkqmem =         8  mk1mem =         8 mpssoang=         1
     mpw =        47  mqgrid =      3001   natom =         1    nfft =      1000
    nkpt =         8  nloalg =         4  nspden =         1 nspinor =         1
  nsppol =         1    nsym =         1  n1xccc =         0  ntypat =         1
  occopt =         1
================================================================================
P This job should need less than                       0.688 Mbytes of memory.
  Rough estimation (10% accuracy) of disk space for files :
_ WF disk file :      0.025 Mbytes ; DEN or POT disk file :      0.010 Mbytes.
================================================================================


 DATASET    3 : space group P1 (#  1); Bravais aP (primitive triclinic)
================================================================================
 Values of the parameters that define the memory need for DATASET  3 (RF).
   intxc =         0    iscf =         7 xclevel =         1  lmnmax =         1
   lnmax =         1   mband =         4  mffmem =         1   mgfft =        10
P  mkmem =         8  mkqmem =         8  mk1mem =         8 mpssoang=         1
     mpw =        47  mqgrid =      3001   natom =         1    nfft =      1000
    nkpt =         8  nloalg =         4  nspden =         1 nspinor =         1
  nsppol =         1    nsym =         1  n1xccc =         0  ntypat =         1
  occopt =         1
================================================================================
P This job should need less than                       0.744 Mbytes of memory.
  Rough estimation (10% accuracy) of disk space for files :
_ WF disk file :      0.025 Mbytes ; DEN or POT disk file :      0.010 Mbytes.
================================================================================


 DATASET    4 : space group P1 (#  1); Bravais aP (primitive triclinic)
================================================================================
 Values of the parameters that define the memory need for DATASET  4 (RF).
   intxc =         0    iscf =         7 xclevel =         1  lmnmax =         1
   lnmax =         1   mband =         4  mffmem =         1   mgfft =        10
P  mkmem =         8  mkqmem =         8  mk1mem =         8 mpssoang=         1
     mpw =        47  mqgrid =      3001   natom =         1    nfft =      1000
    nkpt =         8  nloalg =         4  nspden =         1 nspinor =         1
  nsppol =         1    nsym =         1  n1xccc =         0  ntypat =         1
  occopt =         1
================================================================================
P This job should need less than                       0.744 Mbytes of memory.
  Rough estimation (10% accuracy) of disk space for files :
_ WF disk file :      0.025 Mbytes ; DEN or POT disk file :      0.010 Mbytes.
================================================================================


 DATASET    5 : space group P1 (#  1); Bravais aP (primitive triclinic)
================================================================================
 Values of the parameters that define the memory need for DATASET  5 (RF).
   intxc =         0    iscf =         7 xclevel =         1  lmnmax =         1
   lnmax =         1   mband =         4  mffmem =         1   mgfft =        10
P  mkmem =         8  mkqmem =         8  mk1mem =         8 mpssoang=         1
     mpw =        47  mqgrid =      3001   natom =         1    nfft =      1000
    nkpt =         8  nloalg =         4  nspden =         1 nspinor =         1
  nsppol =         1    nsym =         1  n1xccc =         0  ntypat =         1
  occopt =         1
================================================================================
P This job should need less than                       0.744 Mbytes of memory.
  Rough estimation (10% accuracy) of disk space for files :
_ WF disk file :      0.025 Mbytes ; DEN or POT disk file :      0.010 Mbytes.
================================================================================


 DATASET    6 : space group P1 (#  1); Bravais aP (primitive triclinic)
================================================================================
 Values of the parameters that define the memory need for DATASET  6 (RF).
   intxc =         0    iscf =         7 xclevel =         1  lmnmax =         1
   lnmax =         1   mband =         4  mffmem =         1   mgfft =        10
P  mkmem =         8  mkqmem =         8  mk1mem =         8 mpssoang=         1
     mpw =        47  mqgrid =      3001   natom =         1    nfft =      1000
    nkpt =         8  nloalg =         4  nspden =         1 nspinor =         1
  nsppol =         1    nsym =         1  n1xccc =         0  ntypat =         1
  occopt =         1
================================================================================
P This job should need less than                       0.744 Mbytes of memory.
  Rough estimation (10% accuracy) of disk space for files :
_ WF disk file :      0.025 Mbytes ; DEN or POT disk file :      0.010 Mbytes.
================================================================================


 DATASET    7 : space group P1 (#  1); Bravais aP (primitive triclinic)
================================================================================
 Values of the parameters that define the memory need for DATASET  7 (RF).
   intxc =         0    iscf =         7 xclevel =         1  lmnmax =         1
   lnmax =         1   mband =         4  mffmem =         1   mgfft =        10
P  mkmem =         8  mkqmem =         8  mk1mem =         8 mpssoang=         1
     mpw =        47  mqgrid =      3001   natom =         1    nfft =      1000
    nkpt =         8  nloalg =         4  nspden =         1 nspinor =         1
  nsppol =         1    nsym =         1  n1xccc =         0  ntypat =         1
  occopt =         1
================================================================================
P This job should need less than                       0.744 Mbytes of memory.
  Rough estimation (10% accuracy) of disk space for files :
_ WF disk file :      0.025 Mbytes ; DEN or POT disk file :      0.010 Mbytes.
================================================================================


 DATASET    8 : space group P1 (#  1); Bravais aP (primitive triclinic)
================================================================================
 Values of the parameters that define the memory need for DATASET  8 (RF).
   intxc =         0    iscf =         7 xclevel =         1  lmnmax =         1
   lnmax =         1   mband =         4  mffmem =         1   mgfft =        10
P  mkmem =         8  mkqmem =         8  mk1mem =         8 mpssoang=         1
     mpw =        47  mqgrid =      3001   natom =         1    nfft =      1000
    nkpt =         8  nloalg =         4  nspden =         1 nspinor =         1
  nsppol =         1    nsym =         1  n1xccc =         0  ntypat =         1
  occopt =         1
================================================================================
P This job should need less than                       0.744 Mbytes of memory.
  Rough estimation (10% accuracy) of disk space for files :
_ WF disk file :      0.025 Mbytes ; DEN or POT disk file :      0.010 Mbytes.
================================================================================


 DATASET    9 : space group P1 (#  1); Bravais aP (primitive triclinic)
================================================================================
 Values of the parameters that define the memory need for DATASET  9 (RF).
   intxc =         0    iscf =         7 xclevel =         1  lmnmax =         1
   lnmax =         1   mband =         4  mffmem =         1   mgfft =        10
P  mkmem =         8  mkqmem =         8  mk1mem =         8 mpssoang=         1
     mpw =        47  mqgrid =      3001   natom =         1    nfft =      1000
    nkpt =         8  nloalg =         4  nspden =         1 nspinor =         1
  nsppol =         1    nsym =         1  n1xccc =         0  ntypat =         1
  occopt =         1
================================================================================
P This job should need less than                       0.744 Mbytes of memory.
  Rough estimation (10% accuracy) of disk space for files :
_ WF disk file :      0.025 Mbytes ; DEN or POT disk file :      0.010 Mbytes.
================================================================================

--------------------------------------------------------------------------------
------------- Echo of variables that govern the present computation ------------
--------------------------------------------------------------------------------
-
- outvars: echo of selected default values                                      
-   accesswff0 =  0 , fftalg0 =112 , wfoptalg0 =  0
-
- outvars: echo of global parameters not present in the input file              
-  max_nthreads =    0
-
 -outvars: echo values of preprocessed input variables --------
            acell      4.3000000000E+00  4.3000000000E+00  4.3000000000E+00 Bohr
              amu      4.00260200E+00
          bdeigrf           4
           diemac      2.00000000E+00
             ecut      8.00000000E+00 Hartree
-          fftalg         112
   getgam_eig2nkq1          0
   getgam_eig2nkq2          2
   getgam_eig2nkq3          2
   getgam_eig2nkq4          2
   getgam_eig2nkq5          2
   getgam_eig2nkq6          2
   getgam_eig2nkq7          2
   getgam_eig2nkq8          2
   getgam_eig2nkq9          2
           getwfk1          0
           getwfk2          1
           getwfk3          1
           getwfk4          1
           getwfk5          1
           getwfk6          1
           getwfk7          1
           getwfk8          1
           getwfk9          1
          ieig2rf1          0
          ieig2rf2          1
          ieig2rf3          1
          ieig2rf4          1
          ieig2rf5          1
          ieig2rf6          1
          ieig2rf7          1
          ieig2rf8          1
          ieig2rf9          1
           jdtset        1    2    3    4    5    6    7    8    9
              kpt      2.50000000E-01  2.50000000E-01  2.50000000E-01
                      -2.50000000E-01  2.50000000E-01  2.50000000E-01
                       2.50000000E-01 -2.50000000E-01  2.50000000E-01
                      -2.50000000E-01 -2.50000000E-01  2.50000000E-01
                       2.50000000E-01  2.50000000E-01 -2.50000000E-01
                      -2.50000000E-01  2.50000000E-01 -2.50000000E-01
                       2.50000000E-01 -2.50000000E-01 -2.50000000E-01
                      -2.50000000E-01 -2.50000000E-01 -2.50000000E-01
           kptopt           3
         kptrlatt        2    0    0      0    2    0      0    0    2
          kptrlen      7.44781847E+00
P           mkmem           8
P          mkqmem           8
P          mk1mem           8
            natom           1
            nband           4
           ndtset           9
            ngfft          10      10      10
             nkpt           8
             nqpt1          0
             nqpt2          1
             nqpt3          1
             nqpt4          1
             nqpt5          1
             nqpt6          1
             nqpt7          1
             nqpt8          1
             nqpt9          1
            nstep          40
             nsym           1
           ntypat           1
              occ      2.000000  0.000000  0.000000  0.000000
        optdriver1          0
        optdriver2          1
        optdriver3          1
        optdriver4          1
        optdriver5          1
        optdriver6          1
        optdriver7          1
        optdriver8          1
        optdriver9          1
              qpt1     0.00000000E+00  0.00000000E+00  0.00000000E+00
              qpt2     0.00000000E+00  0.00000000E+00  0.00000000E+00
              qpt3     5.00000000E-01  0.00000000E+00  0.00000000E+00
              qpt4     0.00000000E+00  5.00000000E-01  0.00000000E+00
              qpt5     5.00000000E-01  5.00000000E-01  0.00000000E+00
              qpt6     0.00000000E+00  0.00000000E+00  5.00000000E-01
              qpt7     5.00000000E-01  0.00000000E+00  5.00000000E-01
              qpt8     0.00000000E+00  5.00000000E-01  5.00000000E-01
              qpt9     5.00000000E-01  5.00000000E-01  5.00000000E-01
            rfdir           1       1       1
           rfphon1          0
           rfphon2          1
           rfphon3          1
           rfphon4          1
           rfphon5          1
           rfphon6          1
           rfphon7          1
           rfphon8          1
           rfphon9          1
            rprim     -5.0000000000E-01  5.0000000000E-01  5.0000000000E-01
                       5.0000000000E-01 -5.0000000000E-01  5.0000000000E-01
                       5.0000000000E-01  5.0000000000E-01 -5.0000000000E-01
           shiftk      5.00000000E-01  5.00000000E-01  5.00000000E-01
          spgroup           1
           tolvrs1     1.00000000E-18
           tolvrs2     1.00000000E-08
           tolvrs3     1.00000000E-08
           tolvrs4     1.00000000E-08
           tolvrs5     1.00000000E-08
           tolvrs6     1.00000000E-08
           tolvrs7     1.00000000E-08
           tolvrs8     1.00000000E-08
           tolvrs9     1.00000000E-08
            typat      1
              wtk        0.12500    0.12500    0.12500    0.12500    0.12500    0.12500
                         0.12500    0.12500
            znucl        2.00000

================================================================================

 chkinp: Checking input parameters for consistency, jdtset=   1.

 chkinp: Checking input parameters for consistency, jdtset=   2.

 chkinp: Checking input parameters for consistency, jdtset=   3.

 chkinp: Checking input parameters for consistency, jdtset=   4.

 chkinp: Checking input parameters for consistency, jdtset=   5.

 chkinp: Checking input parameters for consistency, jdtset=   6.

 chkinp: Checking input parameters for consistency, jdtset=   7.

 chkinp: Checking input parameters for consistency, jdtset=   8.

 chkinp: Checking input parameters for consistency, jdtset=   9.

================================================================================
== DATASET  1 ==================================================================
-   nproc =    1

 Exchange-correlation functional for the present dataset will be:
  LDA: new Teter (4/93) with spin-polarized option - ixc=1
 Citation for XC functional:
  S. Goedecker, M. Teter, J. Huetter, PRB 54, 1703 (1996)

 Real(R)+Recip(G) space primitive vectors, cartesian coordinates (Bohr,Bohr^-1):
 R(1)= -2.1500000  2.1500000  2.1500000  G(1)=  0.0000000  0.2325581  0.2325581
 R(2)=  2.1500000 -2.1500000  2.1500000  G(2)=  0.2325581  0.0000000  0.2325581
 R(3)=  2.1500000  2.1500000 -2.1500000  G(3)=  0.2325581  0.2325581  0.0000000
 Unit cell volume ucvol=  3.9753500E+01 bohr^3
 Angles (23,13,12)=  1.09471221E+02  1.09471221E+02  1.09471221E+02 degrees

 getcut: wavevector=  0.0000  0.0000  0.0000  ngfft=  10  10  10
         ecut(hartree)=      8.000   => boxcut(ratio)=   2.13006

--- Pseudopotential description ------------------------------------------------
- pspini: atom type   1  psp file is /home/gonze/ABINIT/ABINITv7.9.3/trunk/7.9.3-private/tests/Psps_for_tests/02he.fakesmooth
- pspatm: opening atomic psp file    /home/gonze/ABINIT/ABINITv7.9.3/trunk/7.9.3-private/tests/Psps_for_tests/02he.fakesmooth
- Bare (erfc) Goedecker-Teter-Hutter  Wed May  8 14:27:44 EDT 1996
-  2.00000   2.00000    960508                znucl, zion, pspdat
    2    1    0    0      2001   0.00000      pspcod,pspxc,lmax,lloc,mmax,r2well
 rloc=   0.5000000
  cc1=   0.0000000; cc2=   0.0000000; cc3=   0.0000000; cc4=   0.0000000
  rrs=   0.0000000; h1s=   0.0000000; h2s=   0.0000000
  rrp=   0.0000000; h1p=   0.0000000
-  Local part computed in reciprocal space.

 pspatm : COMMENT -
  the projectors are not normalized,
  so that the KB energies are not consistent with 
  definition in PRB44, 8503 (1991). 
  However, this does not influence the results obtained hereafter.
 pspatm: epsatm=    3.14159265
         --- l  ekb(1:nproj) -->
 pspatm: atomic psp has been read  and splines computed

   6.28318531E+00                                ecore*ucvol(ha*bohr**3)
--------------------------------------------------------------------------------

P newkpt: treating      4 bands with npw=      44 for ikpt=   1 by node    0
P newkpt: treating      4 bands with npw=      47 for ikpt=   2 by node    0
P newkpt: treating      4 bands with npw=      47 for ikpt=   3 by node    0
P newkpt: treating      4 bands with npw=      47 for ikpt=   4 by node    0
P newkpt: treating      4 bands with npw=      47 for ikpt=   5 by node    0
P newkpt: treating      4 bands with npw=      47 for ikpt=   6 by node    0
P newkpt: treating      4 bands with npw=      47 for ikpt=   7 by node    0
P newkpt: treating      4 bands with npw=      44 for ikpt=   8 by node    0

_setup2: Arith. and geom. avg. npw (full set) are      46.250      46.231

================================================================================

     iter   Etot(hartree)      deltaE(h)  residm     vres2
 ETOT  1  -1.6267491326794    -1.627E+00 2.428E-04 5.240E+00
 ETOT  2  -1.6363861040561    -9.637E-03 1.388E-09 8.147E-03
 ETOT  3  -1.6363976072540    -1.150E-05 3.873E-06 1.864E-05
 ETOT  4  -1.6363976145895    -7.336E-09 2.611E-10 8.217E-09
 ETOT  5  -1.6363976146008    -1.125E-11 3.637E-12 1.108E-11
 ETOT  6  -1.6363976146008    -2.132E-14 6.225E-15 5.840E-15
 ETOT  7  -1.6363976146008    -8.882E-16 3.602E-18 5.284E-18
 ETOT  8  -1.6363976146008     6.661E-16 3.479E-21 5.434E-21

 At SCF step    8       vres2   =  5.43E-21 < tolvrs=  1.00E-18 =>converged.

 Cartesian components of stress tensor (hartree/bohr^3)
  sigma(1 1)= -1.61395454E-03  sigma(3 2)=  2.70300191E-13
  sigma(2 2)= -1.61395454E-03  sigma(3 1)=  0.00000000E+00
  sigma(3 3)= -1.61395454E-03  sigma(2 1)= -2.70294559E-13

================================================================================

 ----iterations are completed or convergence reached----

 Mean square residual over all n,k,spin=   1.3049E-21; max=  3.4792E-21
   0.2500  0.2500  0.2500    1  9.99434E-23 kpt; spin; max resid(k); each band:
  9.99E-23 3.08E-23 2.36E-23 2.96E-23
  -0.2500  0.2500  0.2500    1  3.01073E-21 kpt; spin; max resid(k); each band:
  3.00E-21 3.01E-21 6.97E-24 6.87E-24
   0.2500 -0.2500  0.2500    1  3.47923E-21 kpt; spin; max resid(k); each band:
  3.48E-21 3.45E-21 1.97E-21 1.56E-24
  -0.2500 -0.2500  0.2500    1  2.86890E-21 kpt; spin; max resid(k); each band:
  2.87E-21 2.87E-21 3.46E-24 3.48E-23
   0.2500  0.2500 -0.2500    1  2.86892E-21 kpt; spin; max resid(k); each band:
  2.87E-21 2.87E-21 3.46E-24 3.48E-23
  -0.2500  0.2500 -0.2500    1  3.47919E-21 kpt; spin; max resid(k); each band:
  3.48E-21 3.45E-21 1.97E-21 1.56E-24
   0.2500 -0.2500 -0.2500    1  3.01075E-21 kpt; spin; max resid(k); each band:
  3.00E-21 3.01E-21 6.97E-24 6.87E-24
  -0.2500 -0.2500 -0.2500    1  9.99433E-23 kpt; spin; max resid(k); each band:
  9.99E-23 3.08E-23 2.36E-23 2.96E-23
 reduced coordinates (array xred) for    1 atoms
       0.000000000000      0.000000000000      0.000000000000
 rms dE/dt=  2.9655E-15; max dE/dt=  3.6110E-15; dE/dt below (all hartree)
    1       0.000000000000      0.000000000000     -0.000000000000

 cartesian coordinates (angstrom) at end:
    1      0.00000000000000     0.00000000000000     0.00000000000000

 cartesian forces (hartree/bohr) at end:
    1      0.00000000000000     0.00000000000000     0.00000000000000
 frms,max,avg= 0.0000000E+00 0.0000000E+00   0.000E+00  0.000E+00  0.000E+00 h/b

 cartesian forces (eV/Angstrom) at end:
    1      0.00000000000000     0.00000000000000     0.00000000000000
 frms,max,avg= 0.0000000E+00 0.0000000E+00   0.000E+00  0.000E+00  0.000E+00 e/A
 length scales=  4.300000000000  4.300000000000  4.300000000000 bohr
              =  2.275461996937  2.275461996937  2.275461996937 angstroms
 prteigrs : about to open file t50o_DS1_EIG
 Fermi (or HOMO) energy (hartree) =   0.09747   Average Vxc (hartree)=  -0.40410
 Eigenvalues (hartree) for nkpt=   8  k points:
 kpt#   1, nband=  4, wtk=  0.12500, kpt=  0.2500  0.2500  0.2500 (reduced coord)
   0.09747   0.46242   0.46242   0.46242
 kpt#   2, nband=  4, wtk=  0.12500, kpt= -0.2500  0.2500  0.2500 (reduced coord)
  -0.19671   0.71559   0.93348   0.93348
 kpt#   3, nband=  4, wtk=  0.12500, kpt=  0.2500 -0.2500  0.2500 (reduced coord)
  -0.19671   0.71559   0.93348   0.93348
 kpt#   4, nband=  4, wtk=  0.12500, kpt= -0.2500 -0.2500  0.2500 (reduced coord)
  -0.19671   0.71559   0.93348   0.93348
 kpt#   5, nband=  4, wtk=  0.12500, kpt=  0.2500  0.2500 -0.2500 (reduced coord)
  -0.19671   0.71559   0.93348   0.93348
 kpt#   6, nband=  4, wtk=  0.12500, kpt= -0.2500  0.2500 -0.2500 (reduced coord)
  -0.19671   0.71559   0.93348   0.93348
 kpt#   7, nband=  4, wtk=  0.12500, kpt=  0.2500 -0.2500 -0.2500 (reduced coord)
  -0.19671   0.71559   0.93348   0.93348
 kpt#   8, nband=  4, wtk=  0.12500, kpt= -0.2500 -0.2500 -0.2500 (reduced coord)
   0.09747   0.46242   0.46242   0.46242
 Total charge density [el/Bohr^3]
,     Maximum=    2.2563E-01  at reduced coord.    0.0000    0.0000    0.0000
,Next maximum=    1.9759E-01  at reduced coord.    0.9000    0.9000    0.9000
,     Minimum=    2.3513E-02  at reduced coord.    0.7000    0.5000    0.2000
,Next minimum=    2.3513E-02  at reduced coord.    0.5000    0.7000    0.2000
,  Integrated=    2.0000E+00

--------------------------------------------------------------------------------
 Components of total free energy (in Hartree) :

    Kinetic energy  =  9.50484580615274E-01
    Hartree energy  =  6.68269809427350E-02
    XC energy       = -6.91334105466809E-01
    Ewald energy    = -1.69266672070162E+00
    PspCore energy  =  1.58053638225052E-01
    Loc. psp. energy= -4.27761988215426E-01
    NL   psp  energy=  0.00000000000000E+00
    >>>>>>>>> Etotal= -1.63639761460079E+00

 Other information on the energy :
    Total energy(eV)= -4.45286436384905E+01 ; Band energy (Ha)=  -2.4633052097E-01
--------------------------------------------------------------------------------

 Cartesian components of stress tensor (hartree/bohr^3)
  sigma(1 1)= -1.61395454E-03  sigma(3 2)=  2.70300191E-13
  sigma(2 2)= -1.61395454E-03  sigma(3 1)=  0.00000000E+00
  sigma(3 3)= -1.61395454E-03  sigma(2 1)= -2.70294559E-13

-Cartesian components of stress tensor (GPa)         [Pressure=  4.7484E+01 GPa]
- sigma(1 1)= -4.74841741E+01  sigma(3 2)=  7.95250485E-09
- sigma(2 2)= -4.74841741E+01  sigma(3 1)=  0.00000000E+00
- sigma(3 3)= -4.74841741E+01  sigma(2 1)= -7.95233915E-09

================================================================================
== DATASET  2 ==================================================================
-   nproc =    1

 mkfilename : getwfk/=0, take file _WFK from output of DATASET   1.

 Exchange-correlation functional for the present dataset will be:
  LDA: new Teter (4/93) with spin-polarized option - ixc=1
 Citation for XC functional:
  S. Goedecker, M. Teter, J. Huetter, PRB 54, 1703 (1996)

 Real(R)+Recip(G) space primitive vectors, cartesian coordinates (Bohr,Bohr^-1):
 R(1)= -2.1500000  2.1500000  2.1500000  G(1)=  0.0000000  0.2325581  0.2325581
 R(2)=  2.1500000 -2.1500000  2.1500000  G(2)=  0.2325581  0.0000000  0.2325581
 R(3)=  2.1500000  2.1500000 -2.1500000  G(3)=  0.2325581  0.2325581  0.0000000
 Unit cell volume ucvol=  3.9753500E+01 bohr^3
 Angles (23,13,12)=  1.09471221E+02  1.09471221E+02  1.09471221E+02 degrees
 setup1 : take into account q-point for computing boxcut.

 getcut: wavevector=  0.0000  0.0000  0.0000  ngfft=  10  10  10
         ecut(hartree)=      8.000   => boxcut(ratio)=   2.13006
--------------------------------------------------------------------------------

-inwffil : will read wavefunctions from disk file t50o_DS1_WFK
P newkpt: treating      4 bands with npw=      44 for ikpt=   1 by node    0
P newkpt: treating      4 bands with npw=      47 for ikpt=   2 by node    0
P newkpt: treating      4 bands with npw=      47 for ikpt=   3 by node    0
P newkpt: treating      4 bands with npw=      47 for ikpt=   4 by node    0
P newkpt: treating      4 bands with npw=      47 for ikpt=   5 by node    0
P newkpt: treating      4 bands with npw=      47 for ikpt=   6 by node    0
P newkpt: treating      4 bands with npw=      47 for ikpt=   7 by node    0
P newkpt: treating      4 bands with npw=      44 for ikpt=   8 by node    0


 ==>  initialize data related to q vector <== 

 The list of irreducible perturbations for this q vector is:
    1)    idir= 1    ipert=   1
    2)    idir= 2    ipert=   1
    3)    idir= 3    ipert=   1

================================================================================

--------------------------------------------------------------------------------
 Perturbation wavevector (in red.coord.)   0.000000  0.000000  0.000000
 Perturbation : displacement of atom   1   along direction   1
 The set of symmetries contains only one element for this perturbation.
 symkpt : not enough symmetry to change the number of k points.

--------------------------------------------------------------------------------

-inwffil : will read wavefunctions from disk file t50o_DS1_WFK
P newkpt: treating      4 bands with npw=      44 for ikpt=   1 by node    0
P newkpt: treating      4 bands with npw=      47 for ikpt=   2 by node    0
P newkpt: treating      4 bands with npw=      47 for ikpt=   3 by node    0
P newkpt: treating      4 bands with npw=      47 for ikpt=   4 by node    0
P newkpt: treating      4 bands with npw=      47 for ikpt=   5 by node    0
P newkpt: treating      4 bands with npw=      47 for ikpt=   6 by node    0
P newkpt: treating      4 bands with npw=      47 for ikpt=   7 by node    0
P newkpt: treating      4 bands with npw=      44 for ikpt=   8 by node    0

--------------------------------------------------------------------------------

-inwffil : will read wavefunctions from disk file t50o_DS1_WFK
P newkpt: treating      4 bands with npw=      44 for ikpt=   1 by node    0
P newkpt: treating      4 bands with npw=      47 for ikpt=   2 by node    0
P newkpt: treating      4 bands with npw=      47 for ikpt=   3 by node    0
P newkpt: treating      4 bands with npw=      47 for ikpt=   4 by node    0
P newkpt: treating      4 bands with npw=      47 for ikpt=   5 by node    0
P newkpt: treating      4 bands with npw=      47 for ikpt=   6 by node    0
P newkpt: treating      4 bands with npw=      47 for ikpt=   7 by node    0
P newkpt: treating      4 bands with npw=      44 for ikpt=   8 by node    0

 Initialisation of the first-order wave-functions :
  ireadwf=   0
P newkpt: treating      4 bands with npw=      44 for ikpt=   1 by node    0
P newkpt: treating      4 bands with npw=      47 for ikpt=   2 by node    0
P newkpt: treating      4 bands with npw=      47 for ikpt=   3 by node    0
P newkpt: treating      4 bands with npw=      47 for ikpt=   4 by node    0
P newkpt: treating      4 bands with npw=      47 for ikpt=   5 by node    0
P newkpt: treating      4 bands with npw=      47 for ikpt=   6 by node    0
P newkpt: treating      4 bands with npw=      47 for ikpt=   7 by node    0
P newkpt: treating      4 bands with npw=      44 for ikpt=   8 by node    0


     iter   2DEtotal(Ha)        deltaE(Ha) residm    vres2
-ETOT  1  9.28397649307300E-02 -9.246E+00 3.161E-02 2.115E+01
 ETOT  2  2.56988815170445E-05 -9.281E-02 2.441E-04 1.063E-02
 ETOT  3  3.77719011623867E-08 -2.566E-05 1.501E-07 3.143E-05
 ETOT  4  1.31469057862432E-09 -3.646E-08 2.871E-10 6.705E-09

 At SCF step    4       vres2   =  6.71E-09 < tolvrs=  1.00E-08 =>converged.
================================================================================

 ----iterations are completed or convergence reached----

 Mean square residual over all n,k,spin=   1.1298E-10; max=  2.8710E-10
   0.2500  0.2500  0.2500    1  2.87104E-10 kpt; spin; max resid(k); each band:
  4.04E-11 8.29E-11 7.51E-11 2.87E-10
  -0.2500  0.2500  0.2500    1  2.73124E-10 kpt; spin; max resid(k); each band:
  7.69E-11 2.73E-10 3.41E-11 6.80E-12
   0.2500 -0.2500  0.2500    1  2.73124E-10 kpt; spin; max resid(k); each band:
  7.69E-11 2.73E-10 9.67E-11 9.02E-11
  -0.2500 -0.2500  0.2500    1  2.73124E-10 kpt; spin; max resid(k); each band:
  7.69E-11 2.73E-10 3.42E-11 9.98E-12
   0.2500  0.2500 -0.2500    1  2.73124E-10 kpt; spin; max resid(k); each band:
  7.69E-11 2.73E-10 3.42E-11 1.00E-11
  -0.2500  0.2500 -0.2500    1  2.73124E-10 kpt; spin; max resid(k); each band:
  7.69E-11 2.73E-10 9.67E-11 9.03E-11
   0.2500 -0.2500 -0.2500    1  2.73124E-10 kpt; spin; max resid(k); each band:
  7.69E-11 2.73E-10 3.41E-11 6.70E-12
  -0.2500 -0.2500 -0.2500    1  2.87104E-10 kpt; spin; max resid(k); each band:
  4.04E-11 8.29E-11 7.51E-11 2.87E-10

 Thirteen components of 2nd-order total energy (hartree) are
 1,2,3: 0th-order hamiltonian combined with 1st-order wavefunctions
     kin0=   3.93665647E+00 eigvalue=   9.95238844E-02  local=  -8.17227073E-01
 4,5,6: 1st-order hamiltonian combined with 1st and 0th-order wfs
 loc psp =  -1.86775476E+01  Hartree=   2.75550424E+00     xc=  -1.90963032E+00
 note that "loc psp" includes a xc core correction that could be resolved
 7,8,9: eventually, occupation + non-local contributions
    edocc=   5.27394671E+00     enl0=   0.00000000E+00   enl1=   0.00000000E+00
 1-9 gives the relaxation energy (to be shifted if some occ is /=2.0)
   erelax=  -9.33877365E+00
 10,11,12 Non-relaxation  contributions : frozen-wavefunctions and Ewald
 fr.local=   9.33877365E+00 fr.nonlo=   0.00000000E+00  Ewald=   0.00000000E+00
 13,14 Frozen wf xc core corrections (1) and (2)
 frxc 1  =   0.00000000E+00  frxc 2 =   0.00000000E+00
 Resulting in :
 2DEtotal=    0.1314690579E-08 Ha. Also 2DEtotal=    0.357745499921E-07 eV
    (2DErelax=   -9.3387736467E+00 Ha. 2DEnonrelax=    9.3387736480E+00 Ha)
    (  non-var. 2DEtotal :   -1.3413806599E-07 Ha)


--------------------------------------------------------------------------------
 Perturbation wavevector (in red.coord.)   0.000000  0.000000  0.000000
 Perturbation : displacement of atom   1   along direction   2
 The set of symmetries contains only one element for this perturbation.
 symkpt : not enough symmetry to change the number of k points.

--------------------------------------------------------------------------------

-inwffil : will read wavefunctions from disk file t50o_DS1_WFK
P newkpt: treating      4 bands with npw=      44 for ikpt=   1 by node    0
P newkpt: treating      4 bands with npw=      47 for ikpt=   2 by node    0
P newkpt: treating      4 bands with npw=      47 for ikpt=   3 by node    0
P newkpt: treating      4 bands with npw=      47 for ikpt=   4 by node    0
P newkpt: treating      4 bands with npw=      47 for ikpt=   5 by node    0
P newkpt: treating      4 bands with npw=      47 for ikpt=   6 by node    0
P newkpt: treating      4 bands with npw=      47 for ikpt=   7 by node    0
P newkpt: treating      4 bands with npw=      44 for ikpt=   8 by node    0

--------------------------------------------------------------------------------

-inwffil : will read wavefunctions from disk file t50o_DS1_WFK
P newkpt: treating      4 bands with npw=      44 for ikpt=   1 by node    0
P newkpt: treating      4 bands with npw=      47 for ikpt=   2 by node    0
P newkpt: treating      4 bands with npw=      47 for ikpt=   3 by node    0
P newkpt: treating      4 bands with npw=      47 for ikpt=   4 by node    0
P newkpt: treating      4 bands with npw=      47 for ikpt=   5 by node    0
P newkpt: treating      4 bands with npw=      47 for ikpt=   6 by node    0
P newkpt: treating      4 bands with npw=      47 for ikpt=   7 by node    0
P newkpt: treating      4 bands with npw=      44 for ikpt=   8 by node    0

 Initialisation of the first-order wave-functions :
  ireadwf=   0
P newkpt: treating      4 bands with npw=      44 for ikpt=   1 by node    0
P newkpt: treating      4 bands with npw=      47 for ikpt=   2 by node    0
P newkpt: treating      4 bands with npw=      47 for ikpt=   3 by node    0
P newkpt: treating      4 bands with npw=      47 for ikpt=   4 by node    0
P newkpt: treating      4 bands with npw=      47 for ikpt=   5 by node    0
P newkpt: treating      4 bands with npw=      47 for ikpt=   6 by node    0
P newkpt: treating      4 bands with npw=      47 for ikpt=   7 by node    0
P newkpt: treating      4 bands with npw=      44 for ikpt=   8 by node    0


     iter   2DEtotal(Ha)        deltaE(Ha) residm    vres2
-ETOT  1  9.28397649321067E-02 -9.246E+00 3.161E-02 2.115E+01
 ETOT  2  2.56988815721115E-05 -9.281E-02 2.441E-04 1.063E-02
 ETOT  3  3.77719562294487E-08 -2.566E-05 1.501E-07 3.143E-05
 ETOT  4  1.31471189490640E-09 -3.646E-08 2.731E-10 6.705E-09

 At SCF step    4       vres2   =  6.71E-09 < tolvrs=  1.00E-08 =>converged.
================================================================================

 ----iterations are completed or convergence reached----

 Mean square residual over all n,k,spin=   1.1424E-10; max=  2.7312E-10
   0.2500  0.2500  0.2500    1  2.28067E-10 kpt; spin; max resid(k); each band:
  4.04E-11 1.20E-10 2.28E-10 1.17E-10
  -0.2500  0.2500  0.2500    1  2.73124E-10 kpt; spin; max resid(k); each band:
  7.69E-11 2.73E-10 6.80E-12 3.41E-11
   0.2500 -0.2500  0.2500    1  2.73124E-10 kpt; spin; max resid(k); each band:
  7.69E-11 2.73E-10 9.02E-11 9.67E-11
  -0.2500 -0.2500  0.2500    1  2.73124E-10 kpt; spin; max resid(k); each band:
  7.69E-11 2.73E-10 3.42E-11 9.98E-12
   0.2500  0.2500 -0.2500    1  2.73124E-10 kpt; spin; max resid(k); each band:
  7.69E-11 2.73E-10 3.42E-11 1.00E-11
  -0.2500  0.2500 -0.2500    1  2.73124E-10 kpt; spin; max resid(k); each band:
  7.69E-11 2.73E-10 9.03E-11 9.67E-11
   0.2500 -0.2500 -0.2500    1  2.73124E-10 kpt; spin; max resid(k); each band:
  7.69E-11 2.73E-10 6.70E-12 3.41E-11
  -0.2500 -0.2500 -0.2500    1  2.28066E-10 kpt; spin; max resid(k); each band:
  4.04E-11 1.20E-10 2.28E-10 1.17E-10

 Thirteen components of 2nd-order total energy (hartree) are
 1,2,3: 0th-order hamiltonian combined with 1st-order wavefunctions
     kin0=   3.93665647E+00 eigvalue=   9.95238844E-02  local=  -8.17227073E-01
 4,5,6: 1st-order hamiltonian combined with 1st and 0th-order wfs
 loc psp =  -1.86775476E+01  Hartree=   2.75550425E+00     xc=  -1.90963032E+00
 note that "loc psp" includes a xc core correction that could be resolved
 7,8,9: eventually, occupation + non-local contributions
    edocc=   5.27394671E+00     enl0=   0.00000000E+00   enl1=   0.00000000E+00
 1-9 gives the relaxation energy (to be shifted if some occ is /=2.0)
   erelax=  -9.33877365E+00
 10,11,12 Non-relaxation  contributions : frozen-wavefunctions and Ewald
 fr.local=   9.33877365E+00 fr.nonlo=   0.00000000E+00  Ewald=   0.00000000E+00
 13,14 Frozen wf xc core corrections (1) and (2)
 frxc 1  =   0.00000000E+00  frxc 2 =   0.00000000E+00
 Resulting in :
 2DEtotal=    0.1314711895E-08 Ha. Also 2DEtotal=    0.357751300376E-07 eV
    (2DErelax=   -9.3387736468E+00 Ha. 2DEnonrelax=    9.3387736481E+00 Ha)
    (  non-var. 2DEtotal :   -1.3413798960E-07 Ha)


--------------------------------------------------------------------------------
 Perturbation wavevector (in red.coord.)   0.000000  0.000000  0.000000
 Perturbation : displacement of atom   1   along direction   3
 The set of symmetries contains only one element for this perturbation.
 symkpt : not enough symmetry to change the number of k points.

--------------------------------------------------------------------------------

-inwffil : will read wavefunctions from disk file t50o_DS1_WFK
P newkpt: treating      4 bands with npw=      44 for ikpt=   1 by node    0
P newkpt: treating      4 bands with npw=      47 for ikpt=   2 by node    0
P newkpt: treating      4 bands with npw=      47 for ikpt=   3 by node    0
P newkpt: treating      4 bands with npw=      47 for ikpt=   4 by node    0
P newkpt: treating      4 bands with npw=      47 for ikpt=   5 by node    0
P newkpt: treating      4 bands with npw=      47 for ikpt=   6 by node    0
P newkpt: treating      4 bands with npw=      47 for ikpt=   7 by node    0
P newkpt: treating      4 bands with npw=      44 for ikpt=   8 by node    0

--------------------------------------------------------------------------------

-inwffil : will read wavefunctions from disk file t50o_DS1_WFK
P newkpt: treating      4 bands with npw=      44 for ikpt=   1 by node    0
P newkpt: treating      4 bands with npw=      47 for ikpt=   2 by node    0
P newkpt: treating      4 bands with npw=      47 for ikpt=   3 by node    0
P newkpt: treating      4 bands with npw=      47 for ikpt=   4 by node    0
P newkpt: treating      4 bands with npw=      47 for ikpt=   5 by node    0
P newkpt: treating      4 bands with npw=      47 for ikpt=   6 by node    0
P newkpt: treating      4 bands with npw=      47 for ikpt=   7 by node    0
P newkpt: treating      4 bands with npw=      44 for ikpt=   8 by node    0

 Initialisation of the first-order wave-functions :
  ireadwf=   0
P newkpt: treating      4 bands with npw=      44 for ikpt=   1 by node    0
P newkpt: treating      4 bands with npw=      47 for ikpt=   2 by node    0
P newkpt: treating      4 bands with npw=      47 for ikpt=   3 by node    0
P newkpt: treating      4 bands with npw=      47 for ikpt=   4 by node    0
P newkpt: treating      4 bands with npw=      47 for ikpt=   5 by node    0
P newkpt: treating      4 bands with npw=      47 for ikpt=   6 by node    0
P newkpt: treating      4 bands with npw=      47 for ikpt=   7 by node    0
P newkpt: treating      4 bands with npw=      44 for ikpt=   8 by node    0


     iter   2DEtotal(Ha)        deltaE(Ha) residm    vres2
-ETOT  1  9.28397649335864E-02 -9.246E+00 3.161E-02 2.115E+01
 ETOT  2  2.56988817710635E-05 -9.281E-02 2.441E-04 1.063E-02
 ETOT  3  3.77721498523442E-08 -2.566E-05 1.501E-07 3.143E-05
 ETOT  4  1.31490907051557E-09 -3.646E-08 2.841E-10 6.705E-09

 At SCF step    4       vres2   =  6.71E-09 < tolvrs=  1.00E-08 =>converged.
================================================================================

 ----iterations are completed or convergence reached----

 Mean square residual over all n,k,spin=   1.1308E-10; max=  2.8415E-10
   0.2500  0.2500  0.2500    1  2.84148E-10 kpt; spin; max resid(k); each band:
  4.04E-11 2.84E-10 7.51E-11 8.75E-11
  -0.2500  0.2500  0.2500    1  2.73124E-10 kpt; spin; max resid(k); each band:
  7.69E-11 2.73E-10 6.80E-12 3.41E-11
   0.2500 -0.2500  0.2500    1  2.73124E-10 kpt; spin; max resid(k); each band:
  7.69E-11 2.73E-10 9.67E-11 9.02E-11
  -0.2500 -0.2500  0.2500    1  2.73124E-10 kpt; spin; max resid(k); each band:
  7.69E-11 2.73E-10 9.98E-12 3.42E-11
   0.2500  0.2500 -0.2500    1  2.73124E-10 kpt; spin; max resid(k); each band:
  7.69E-11 2.73E-10 1.00E-11 3.42E-11
  -0.2500  0.2500 -0.2500    1  2.73124E-10 kpt; spin; max resid(k); each band:
  7.69E-11 2.73E-10 9.67E-11 9.03E-11
   0.2500 -0.2500 -0.2500    1  2.73124E-10 kpt; spin; max resid(k); each band:
  7.69E-11 2.73E-10 6.70E-12 3.41E-11
  -0.2500 -0.2500 -0.2500    1  2.84149E-10 kpt; spin; max resid(k); each band:
  4.04E-11 2.84E-10 7.51E-11 8.75E-11

 Thirteen components of 2nd-order total energy (hartree) are
 1,2,3: 0th-order hamiltonian combined with 1st-order wavefunctions
     kin0=   3.93665647E+00 eigvalue=   9.95238844E-02  local=  -8.17227073E-01
 4,5,6: 1st-order hamiltonian combined with 1st and 0th-order wfs
 loc psp =  -1.86775476E+01  Hartree=   2.75550425E+00     xc=  -1.90963032E+00
 note that "loc psp" includes a xc core correction that could be resolved
 7,8,9: eventually, occupation + non-local contributions
    edocc=   5.27394671E+00     enl0=   0.00000000E+00   enl1=   0.00000000E+00
 1-9 gives the relaxation energy (to be shifted if some occ is /=2.0)
   erelax=  -9.33877365E+00
 10,11,12 Non-relaxation  contributions : frozen-wavefunctions and Ewald
 fr.local=   9.33877365E+00 fr.nonlo=   0.00000000E+00  Ewald=   0.00000000E+00
 13,14 Frozen wf xc core corrections (1) and (2)
 frxc 1  =   0.00000000E+00  frxc 2 =   0.00000000E+00
 Resulting in :
 2DEtotal=    0.1314909071E-08 Ha. Also 2DEtotal=    0.357804954588E-07 eV
    (2DErelax=   -9.3387736469E+00 Ha. 2DEnonrelax=    9.3387736482E+00 Ha)
    (  non-var. 2DEtotal :   -1.3413782618E-07 Ha)

 Components of second-order derivatives of the electronic energy, EIGR2D.
 For automatic tests, printing the matrix for the first k-point, first band, first atom.
   1   1   1   1   -3.9942356688E+00    0.0000000000E+00
   1   1   2   1    1.3314118896E+00    0.0000000000E+00
   1   1   3   1    1.3314118896E+00    0.0000000000E+00
   2   1   1   1    1.3314118896E+00    0.0000000000E+00
   2   1   2   1   -3.9942356689E+00    0.0000000000E+00
   2   1   3   1    1.3314118896E+00    0.0000000000E+00
   3   1   1   1    1.3314118896E+00    0.0000000000E+00
   3   1   2   1    1.3314118896E+00    0.0000000000E+00
   3   1   3   1   -3.9942356689E+00    0.0000000000E+00
 
 Components of second-order derivatives of the electronic energy, EIGI2D.
 For automatic tests, printing the matrix for the first k-point, first band, first atom.
   1   1   1   1    2.7271256389E-03    0.0000000000E+00
   1   1   2   1   -9.0904187956E-04    0.0000000000E+00
   1   1   3   1   -9.0904187976E-04    0.0000000000E+00
   2   1   1   1   -9.0904187956E-04    0.0000000000E+00
   2   1   2   1    2.7271256394E-03    0.0000000000E+00
   2   1   3   1   -9.0904188004E-04    0.0000000000E+00
   3   1   1   1   -9.0904187976E-04    0.0000000000E+00
   3   1   2   1   -9.0904188004E-04    0.0000000000E+00
   3   1   3   1    2.7271256398E-03    0.0000000000E+00
================================================================================

 ---- first-order wavefunction calculations are completed ----


 ==> Compute Derivative Database <==
  
  2nd-order matrix (non-cartesian coordinates, masses not included,
   asr not included )
     j1       j2             matrix element
  dir pert dir pert     real part     imaginary part
  
   1    1   1    1        -0.0000001341         0.0000000000
   1    1   2    1         0.0000000447         0.0000000000
   1    1   3    1         0.0000000447         0.0000000000
  
   2    1   1    1         0.0000000447         0.0000000000
   2    1   2    1        -0.0000001341         0.0000000000
   2    1   3    1         0.0000000447         0.0000000000
  
   3    1   1    1         0.0000000447         0.0000000000
   3    1   2    1         0.0000000447         0.0000000000
   3    1   3    1        -0.0000001341         0.0000000000
  
  
  Dynamical matrix, in cartesian coordinates,
   if specified in the inputs, asr has been imposed
     j1       j2             matrix element
  dir pert dir pert     real part    imaginary part
  
   1    1   1    1        -0.0000000097         0.0000000000
   1    1   2    1         0.0000000000         0.0000000000
   1    1   3    1         0.0000000000         0.0000000000
  
   2    1   1    1         0.0000000000         0.0000000000
   2    1   2    1        -0.0000000097         0.0000000000
   2    1   3    1        -0.0000000000         0.0000000000
  
   3    1   1    1         0.0000000000         0.0000000000
   3    1   2    1        -0.0000000000         0.0000000000
   3    1   3    1        -0.0000000097         0.0000000000
 
  Phonon wavevector (reduced coordinates) :  0.00000  0.00000  0.00000
 Phonon energies in Hartree :
  -1.151433E-06 -1.151385E-06 -1.151371E-06
 Phonon frequencies in cm-1    :
- -2.527104E-01 -2.526997E-01 -2.526968E-01
================================================================================

 ---- T=0 shift of eigenenergies due to electron-phonon interation at q ---- 
 Warning : the total shift must be computed through anaddb,                  
 here, only the contribution of one q point is printed.                      
 Print first the electronic eigenvalues, then the q-dependent Fan shift of eigenvalues.
 Phonons at gamma, also compute the Diagonal Debye-Waller shift of eigenvalues.

 Eigenvalues (hartree) for nkpt=   8  k points:
 kpt#   1, nband=  4, wtk=  0.12500, kpt=  0.2500  0.2500  0.2500 (reduced coord)
   0.09747   0.46242   0.46242   0.46242
 kpt#   2, nband=  4, wtk=  0.12500, kpt= -0.2500  0.2500  0.2500 (reduced coord)
  -0.19671   0.71559   0.93348   0.93348
 kpt#   3, nband=  4, wtk=  0.12500, kpt=  0.2500 -0.2500  0.2500 (reduced coord)
  -0.19671   0.71559   0.93348   0.93348
 kpt#   4, nband=  4, wtk=  0.12500, kpt= -0.2500 -0.2500  0.2500 (reduced coord)
  -0.19671   0.71559   0.93348   0.93348
 kpt#   5, nband=  4, wtk=  0.12500, kpt=  0.2500  0.2500 -0.2500 (reduced coord)
  -0.19671   0.71559   0.93348   0.93348
 kpt#   6, nband=  4, wtk=  0.12500, kpt= -0.2500  0.2500 -0.2500 (reduced coord)
  -0.19671   0.71559   0.93348   0.93348
 kpt#   7, nband=  4, wtk=  0.12500, kpt=  0.2500 -0.2500 -0.2500 (reduced coord)
  -0.19671   0.71559   0.93348   0.93348
 kpt#   8, nband=  4, wtk=  0.12500, kpt= -0.2500 -0.2500 -0.2500 (reduced coord)
   0.09747   0.46242   0.46242   0.46242


 Fan corrections to eigenvalues at T=0 (hartree) for nkpt=   8  k points:
  (in case of degenerate eigenvalues, averaged derivative)
 kpt#   1, nband=  4, wtk=  0.12500, kpt=  0.2500  0.2500  0.2500 (reduced coord)
   0.00000   0.00000   0.00000   0.00000
 kpt#   2, nband=  4, wtk=  0.12500, kpt= -0.2500  0.2500  0.2500 (reduced coord)
   0.00000   0.00000   0.00000   0.00000
 kpt#   3, nband=  4, wtk=  0.12500, kpt=  0.2500 -0.2500  0.2500 (reduced coord)
   0.00000   0.00000   0.00000   0.00000
 kpt#   4, nband=  4, wtk=  0.12500, kpt= -0.2500 -0.2500  0.2500 (reduced coord)
   0.00000   0.00000   0.00000   0.00000
 kpt#   5, nband=  4, wtk=  0.12500, kpt=  0.2500  0.2500 -0.2500 (reduced coord)
   0.00000   0.00000   0.00000   0.00000
 kpt#   6, nband=  4, wtk=  0.12500, kpt= -0.2500  0.2500 -0.2500 (reduced coord)
   0.00000   0.00000   0.00000   0.00000
 kpt#   7, nband=  4, wtk=  0.12500, kpt=  0.2500 -0.2500 -0.2500 (reduced coord)
   0.00000   0.00000   0.00000   0.00000
 kpt#   8, nband=  4, wtk=  0.12500, kpt= -0.2500 -0.2500 -0.2500 (reduced coord)
   0.00000   0.00000   0.00000   0.00000


 DDW corrections to eigenvalues at T=0 (hartree) for nkpt=   8  k points:
  (in case of degenerate eigenvalues, averaged derivative)
 kpt#   1, nband=  4, wtk=  0.12500, kpt=  0.2500  0.2500  0.2500 (reduced coord)
   0.00000   0.00000   0.00000   0.00000
 kpt#   2, nband=  4, wtk=  0.12500, kpt= -0.2500  0.2500  0.2500 (reduced coord)
   0.00000   0.00000   0.00000   0.00000
 kpt#   3, nband=  4, wtk=  0.12500, kpt=  0.2500 -0.2500  0.2500 (reduced coord)
   0.00000   0.00000   0.00000   0.00000
 kpt#   4, nband=  4, wtk=  0.12500, kpt= -0.2500 -0.2500  0.2500 (reduced coord)
   0.00000   0.00000   0.00000   0.00000
 kpt#   5, nband=  4, wtk=  0.12500, kpt=  0.2500  0.2500 -0.2500 (reduced coord)
   0.00000   0.00000   0.00000   0.00000
 kpt#   6, nband=  4, wtk=  0.12500, kpt= -0.2500  0.2500 -0.2500 (reduced coord)
   0.00000   0.00000   0.00000   0.00000
 kpt#   7, nband=  4, wtk=  0.12500, kpt=  0.2500 -0.2500 -0.2500 (reduced coord)
   0.00000   0.00000   0.00000   0.00000
 kpt#   8, nband=  4, wtk=  0.12500, kpt= -0.2500 -0.2500 -0.2500 (reduced coord)
   0.00000   0.00000   0.00000   0.00000


 Fan+DDW corrs   to eigenvalues at T=0 (hartree) for nkpt=   8  k points:
  (in case of degenerate eigenvalues, averaged derivative)
 kpt#   1, nband=  4, wtk=  0.12500, kpt=  0.2500  0.2500  0.2500 (reduced coord)
   0.00000   0.00000   0.00000   0.00000
 kpt#   2, nband=  4, wtk=  0.12500, kpt= -0.2500  0.2500  0.2500 (reduced coord)
   0.00000   0.00000   0.00000   0.00000
 kpt#   3, nband=  4, wtk=  0.12500, kpt=  0.2500 -0.2500  0.2500 (reduced coord)
   0.00000   0.00000   0.00000   0.00000
 kpt#   4, nband=  4, wtk=  0.12500, kpt= -0.2500 -0.2500  0.2500 (reduced coord)
   0.00000   0.00000   0.00000   0.00000
 kpt#   5, nband=  4, wtk=  0.12500, kpt=  0.2500  0.2500 -0.2500 (reduced coord)
   0.00000   0.00000   0.00000   0.00000
 kpt#   6, nband=  4, wtk=  0.12500, kpt= -0.2500  0.2500 -0.2500 (reduced coord)
   0.00000   0.00000   0.00000   0.00000
 kpt#   7, nband=  4, wtk=  0.12500, kpt=  0.2500 -0.2500 -0.2500 (reduced coord)
   0.00000   0.00000   0.00000   0.00000
 kpt#   8, nband=  4, wtk=  0.12500, kpt= -0.2500 -0.2500 -0.2500 (reduced coord)
   0.00000   0.00000   0.00000   0.00000

================================================================================
== DATASET  3 ==================================================================
-   nproc =    1

 mkfilename : getwfk/=0, take file _WFK from output of DATASET   1.

 Exchange-correlation functional for the present dataset will be:
  LDA: new Teter (4/93) with spin-polarized option - ixc=1
 Citation for XC functional:
  S. Goedecker, M. Teter, J. Huetter, PRB 54, 1703 (1996)

 Real(R)+Recip(G) space primitive vectors, cartesian coordinates (Bohr,Bohr^-1):
 R(1)= -2.1500000  2.1500000  2.1500000  G(1)=  0.0000000  0.2325581  0.2325581
 R(2)=  2.1500000 -2.1500000  2.1500000  G(2)=  0.2325581  0.0000000  0.2325581
 R(3)=  2.1500000  2.1500000 -2.1500000  G(3)=  0.2325581  0.2325581  0.0000000
 Unit cell volume ucvol=  3.9753500E+01 bohr^3
 Angles (23,13,12)=  1.09471221E+02  1.09471221E+02  1.09471221E+02 degrees
 setup1 : take into account q-point for computing boxcut.

 getcut: wavevector=  0.5000  0.0000  0.0000  ngfft=  10  10  10
         ecut(hartree)=      8.000   => boxcut(ratio)=   1.91566

--- Pseudopotential description ------------------------------------------------
- pspini: atom type   1  psp file is /home/gonze/ABINIT/ABINITv7.9.3/trunk/7.9.3-private/tests/Psps_for_tests/02he.fakesmooth
- pspatm: opening atomic psp file    /home/gonze/ABINIT/ABINITv7.9.3/trunk/7.9.3-private/tests/Psps_for_tests/02he.fakesmooth
- Bare (erfc) Goedecker-Teter-Hutter  Wed May  8 14:27:44 EDT 1996
-  2.00000   2.00000    960508                znucl, zion, pspdat
    2    1    0    0      2001   0.00000      pspcod,pspxc,lmax,lloc,mmax,r2well
 rloc=   0.5000000
  cc1=   0.0000000; cc2=   0.0000000; cc3=   0.0000000; cc4=   0.0000000
  rrs=   0.0000000; h1s=   0.0000000; h2s=   0.0000000
  rrp=   0.0000000; h1p=   0.0000000
-  Local part computed in reciprocal space.

 pspatm : COMMENT -
  the projectors are not normalized,
  so that the KB energies are not consistent with 
  definition in PRB44, 8503 (1991). 
  However, this does not influence the results obtained hereafter.
 pspatm: epsatm=    3.14159265
         --- l  ekb(1:nproj) -->
 pspatm: atomic psp has been read  and splines computed

--------------------------------------------------------------------------------

-inwffil : will read wavefunctions from disk file t50o_DS1_WFK
P newkpt: treating      4 bands with npw=      44 for ikpt=   1 by node    0
P newkpt: treating      4 bands with npw=      47 for ikpt=   2 by node    0
P newkpt: treating      4 bands with npw=      47 for ikpt=   3 by node    0
P newkpt: treating      4 bands with npw=      47 for ikpt=   4 by node    0
P newkpt: treating      4 bands with npw=      47 for ikpt=   5 by node    0
P newkpt: treating      4 bands with npw=      47 for ikpt=   6 by node    0
P newkpt: treating      4 bands with npw=      47 for ikpt=   7 by node    0
P newkpt: treating      4 bands with npw=      44 for ikpt=   8 by node    0


 ==>  initialize data related to q vector <== 

 The list of irreducible perturbations for this q vector is:
    1)    idir= 1    ipert=   1
    2)    idir= 2    ipert=   1
    3)    idir= 3    ipert=   1

================================================================================

--------------------------------------------------------------------------------
 Perturbation wavevector (in red.coord.)   0.500000  0.000000  0.000000
 Perturbation : displacement of atom   1   along direction   1
 The set of symmetries contains only one element for this perturbation.
 symkpt : not enough symmetry to change the number of k points.

--------------------------------------------------------------------------------

-inwffil : will read wavefunctions from disk file t50o_DS1_WFK
P newkpt: treating      4 bands with npw=      44 for ikpt=   1 by node    0
P newkpt: treating      4 bands with npw=      47 for ikpt=   2 by node    0
P newkpt: treating      4 bands with npw=      47 for ikpt=   3 by node    0
P newkpt: treating      4 bands with npw=      47 for ikpt=   4 by node    0
P newkpt: treating      4 bands with npw=      47 for ikpt=   5 by node    0
P newkpt: treating      4 bands with npw=      47 for ikpt=   6 by node    0
P newkpt: treating      4 bands with npw=      47 for ikpt=   7 by node    0
P newkpt: treating      4 bands with npw=      44 for ikpt=   8 by node    0

--------------------------------------------------------------------------------

-inwffil : will read wavefunctions from disk file t50o_DS1_WFK
- newkpt: read input wf with ikpt,npw=   2      47, make ikpt,npw=   1      47
- newkpt: read input wf with ikpt,npw=   1      44, make ikpt,npw=   2      44
- newkpt: read input wf with ikpt,npw=   4      47, make ikpt,npw=   3      47
- newkpt: read input wf with ikpt,npw=   3      47, make ikpt,npw=   4      47
- newkpt: read input wf with ikpt,npw=   6      47, make ikpt,npw=   5      47
- newkpt: read input wf with ikpt,npw=   5      47, make ikpt,npw=   6      47
- newkpt: read input wf with ikpt,npw=   8      44, make ikpt,npw=   7      44
- newkpt: read input wf with ikpt,npw=   7      47, make ikpt,npw=   8      47

 Initialisation of the first-order wave-functions :
  ireadwf=   0
P newkpt: treating      4 bands with npw=      47 for ikpt=   1 by node    0
P newkpt: treating      4 bands with npw=      44 for ikpt=   2 by node    0
P newkpt: treating      4 bands with npw=      47 for ikpt=   3 by node    0
P newkpt: treating      4 bands with npw=      47 for ikpt=   4 by node    0
P newkpt: treating      4 bands with npw=      47 for ikpt=   5 by node    0
P newkpt: treating      4 bands with npw=      47 for ikpt=   6 by node    0
P newkpt: treating      4 bands with npw=      44 for ikpt=   7 by node    0
P newkpt: treating      4 bands with npw=      47 for ikpt=   8 by node    0


     iter   2DEtotal(Ha)        deltaE(Ha) residm    vres2
-ETOT  1   9.3598593204119     -1.076E+01 7.982E-02 3.423E+03
 ETOT  2   3.5701172550371     -5.790E+00 3.369E-02 3.533E+02
 ETOT  3   2.8820926978433     -6.880E-01 1.939E-03 3.597E-02
 ETOT  4   2.8820345090135     -5.819E-05 5.907E-08 1.382E-04
 ETOT  5   2.8820342966746     -2.123E-07 7.704E-10 3.620E-09

 At SCF step    5       vres2   =  3.62E-09 < tolvrs=  1.00E-08 =>converged.
================================================================================

 ----iterations are completed or convergence reached----

 Mean square residual over all n,k,spin=   1.7493E-10; max=  7.7036E-10
   0.2500  0.2500  0.2500    1  4.12382E-11 kpt; spin; max resid(k); each band:
  1.88E-11 2.44E-11 4.12E-11 1.88E-11
  -0.2500  0.2500  0.2500    1  3.32860E-10 kpt; spin; max resid(k); each band:
  6.52E-11 5.89E-13 3.33E-10 6.49E-12
   0.2500 -0.2500  0.2500    1  7.70359E-10 kpt; spin; max resid(k); each band:
  1.59E-10 7.70E-10 1.50E-10 1.17E-10
  -0.2500 -0.2500  0.2500    1  7.70359E-10 kpt; spin; max resid(k); each band:
  1.59E-10 7.70E-10 1.04E-10 9.67E-11
   0.2500  0.2500 -0.2500    1  7.70359E-10 kpt; spin; max resid(k); each band:
  1.59E-10 7.70E-10 1.04E-10 9.67E-11
  -0.2500  0.2500 -0.2500    1  7.70359E-10 kpt; spin; max resid(k); each band:
  1.59E-10 7.70E-10 7.71E-11 1.17E-10
   0.2500 -0.2500 -0.2500    1  3.32863E-10 kpt; spin; max resid(k); each band:
  6.52E-11 5.89E-13 3.33E-10 6.49E-12
  -0.2500 -0.2500 -0.2500    1  4.12381E-11 kpt; spin; max resid(k); each band:
  1.88E-11 2.44E-11 4.12E-11 1.88E-11

 Thirteen components of 2nd-order total energy (hartree) are
 1,2,3: 0th-order hamiltonian combined with 1st-order wavefunctions
     kin0=   3.59608284E+00 eigvalue=   7.79494121E-02  local=  -7.42434905E-01
 4,5,6: 1st-order hamiltonian combined with 1st and 0th-order wfs
 loc psp =  -3.44826258E+01  Hartree=   8.30162102E+00     xc=  -2.52402925E+00
 note that "loc psp" includes a xc core correction that could be resolved
 7,8,9: eventually, occupation + non-local contributions
    edocc=   8.53211921E+00     enl0=   0.00000000E+00   enl1=   0.00000000E+00
 1-9 gives the relaxation energy (to be shifted if some occ is /=2.0)
   erelax=  -1.72413175E+01
 10,11,12 Non-relaxation  contributions : frozen-wavefunctions and Ewald
 fr.local=   9.33877365E+00 fr.nonlo=   0.00000000E+00  Ewald=   1.07845781E+01
 13,14 Frozen wf xc core corrections (1) and (2)
 frxc 1  =   0.00000000E+00  frxc 2 =   0.00000000E+00
 Resulting in :
 2DEtotal=    0.2882034297E+01 Ha. Also 2DEtotal=    0.784241415445E+02 eV
    (2DErelax=   -1.7241317497E+01 Ha. 2DEnonrelax=    2.0123351794E+01 Ha)
    (  non-var. 2DEtotal :    2.8820388867E+00 Ha)


--------------------------------------------------------------------------------
 Perturbation wavevector (in red.coord.)   0.500000  0.000000  0.000000
 Perturbation : displacement of atom   1   along direction   2
 The set of symmetries contains only one element for this perturbation.
 symkpt : not enough symmetry to change the number of k points.

--------------------------------------------------------------------------------

-inwffil : will read wavefunctions from disk file t50o_DS1_WFK
P newkpt: treating      4 bands with npw=      44 for ikpt=   1 by node    0
P newkpt: treating      4 bands with npw=      47 for ikpt=   2 by node    0
P newkpt: treating      4 bands with npw=      47 for ikpt=   3 by node    0
P newkpt: treating      4 bands with npw=      47 for ikpt=   4 by node    0
P newkpt: treating      4 bands with npw=      47 for ikpt=   5 by node    0
P newkpt: treating      4 bands with npw=      47 for ikpt=   6 by node    0
P newkpt: treating      4 bands with npw=      47 for ikpt=   7 by node    0
P newkpt: treating      4 bands with npw=      44 for ikpt=   8 by node    0

--------------------------------------------------------------------------------

-inwffil : will read wavefunctions from disk file t50o_DS1_WFK
- newkpt: read input wf with ikpt,npw=   2      47, make ikpt,npw=   1      47
- newkpt: read input wf with ikpt,npw=   1      44, make ikpt,npw=   2      44
- newkpt: read input wf with ikpt,npw=   4      47, make ikpt,npw=   3      47
- newkpt: read input wf with ikpt,npw=   3      47, make ikpt,npw=   4      47
- newkpt: read input wf with ikpt,npw=   6      47, make ikpt,npw=   5      47
- newkpt: read input wf with ikpt,npw=   5      47, make ikpt,npw=   6      47
- newkpt: read input wf with ikpt,npw=   8      44, make ikpt,npw=   7      44
- newkpt: read input wf with ikpt,npw=   7      47, make ikpt,npw=   8      47

 Initialisation of the first-order wave-functions :
  ireadwf=   0
P newkpt: treating      4 bands with npw=      47 for ikpt=   1 by node    0
P newkpt: treating      4 bands with npw=      44 for ikpt=   2 by node    0
P newkpt: treating      4 bands with npw=      47 for ikpt=   3 by node    0
P newkpt: treating      4 bands with npw=      47 for ikpt=   4 by node    0
P newkpt: treating      4 bands with npw=      47 for ikpt=   5 by node    0
P newkpt: treating      4 bands with npw=      47 for ikpt=   6 by node    0
P newkpt: treating      4 bands with npw=      44 for ikpt=   7 by node    0
P newkpt: treating      4 bands with npw=      47 for ikpt=   8 by node    0


     iter   2DEtotal(Ha)        deltaE(Ha) residm    vres2
-ETOT  1   1.4084760796796     -8.835E+00 3.258E-02 3.960E+01
 ETOT  2   1.2792766749631     -1.292E-01 3.103E-04 2.484E-02
 ETOT  3   1.2792064096297     -7.027E-05 3.570E-07 1.572E-04
 ETOT  4   1.2792061883772     -2.213E-07 1.359E-09 1.076E-07
 ETOT  5   1.2792061882178     -1.593E-10 8.684E-13 1.685E-10

 At SCF step    5       vres2   =  1.68E-10 < tolvrs=  1.00E-08 =>converged.
================================================================================

 ----iterations are completed or convergence reached----

 Mean square residual over all n,k,spin=   2.5560E-13; max=  8.6840E-13
   0.2500  0.2500  0.2500    1  1.60090E-13 kpt; spin; max resid(k); each band:
  1.60E-13 2.55E-14 8.43E-14 6.58E-14
  -0.2500  0.2500  0.2500    1  3.19788E-13 kpt; spin; max resid(k); each band:
  3.20E-13 1.76E-15 4.61E-15 5.72E-15
   0.2500 -0.2500  0.2500    1  8.68402E-13 kpt; spin; max resid(k); each band:
  8.68E-13 4.13E-13 1.32E-13 2.53E-13
  -0.2500 -0.2500  0.2500    1  8.68400E-13 kpt; spin; max resid(k); each band:
  8.68E-13 4.13E-13 1.65E-13 3.09E-13
   0.2500  0.2500 -0.2500    1  8.68401E-13 kpt; spin; max resid(k); each band:
  8.68E-13 4.13E-13 1.65E-13 3.09E-13
  -0.2500  0.2500 -0.2500    1  8.68403E-13 kpt; spin; max resid(k); each band:
  8.68E-13 4.13E-13 1.32E-13 2.53E-13
   0.2500 -0.2500 -0.2500    1  3.19789E-13 kpt; spin; max resid(k); each band:
  3.20E-13 1.76E-15 4.61E-15 5.72E-15
  -0.2500 -0.2500 -0.2500    1  1.60091E-13 kpt; spin; max resid(k); each band:
  1.60E-13 2.55E-14 8.43E-14 6.58E-14

 Thirteen components of 2nd-order total energy (hartree) are
 1,2,3: 0th-order hamiltonian combined with 1st-order wavefunctions
     kin0=   4.07819667E+00 eigvalue=   1.14878735E-01  local=  -8.56680064E-01
 4,5,6: 1st-order hamiltonian combined with 1st and 0th-order wfs
 loc psp =  -1.79292725E+01  Hartree=   2.51571770E+00     xc=  -1.58799601E+00
 note that "loc psp" includes a xc core correction that could be resolved
 7,8,9: eventually, occupation + non-local contributions
    edocc=   4.70051903E+00     enl0=   0.00000000E+00   enl1=   0.00000000E+00
 1-9 gives the relaxation energy (to be shifted if some occ is /=2.0)
   erelax=  -8.96463640E+00
 10,11,12 Non-relaxation  contributions : frozen-wavefunctions and Ewald
 fr.local=   9.33877365E+00 fr.nonlo=   0.00000000E+00  Ewald=   9.05068937E-01
 13,14 Frozen wf xc core corrections (1) and (2)
 frxc 1  =   0.00000000E+00  frxc 2 =   0.00000000E+00
 Resulting in :
 2DEtotal=    0.1279206188E+01 Ha. Also 2DEtotal=    0.348089706237E+02 eV
    (2DErelax=   -8.9646363971E+00 Ha. 2DEnonrelax=    1.0243842585E+01 Ha)
    (  non-var. 2DEtotal :    1.2792063540E+00 Ha)


--------------------------------------------------------------------------------
 Perturbation wavevector (in red.coord.)   0.500000  0.000000  0.000000
 Perturbation : displacement of atom   1   along direction   3
 The set of symmetries contains only one element for this perturbation.
 symkpt : not enough symmetry to change the number of k points.

--------------------------------------------------------------------------------

-inwffil : will read wavefunctions from disk file t50o_DS1_WFK
P newkpt: treating      4 bands with npw=      44 for ikpt=   1 by node    0
P newkpt: treating      4 bands with npw=      47 for ikpt=   2 by node    0
P newkpt: treating      4 bands with npw=      47 for ikpt=   3 by node    0
P newkpt: treating      4 bands with npw=      47 for ikpt=   4 by node    0
P newkpt: treating      4 bands with npw=      47 for ikpt=   5 by node    0
P newkpt: treating      4 bands with npw=      47 for ikpt=   6 by node    0
P newkpt: treating      4 bands with npw=      47 for ikpt=   7 by node    0
P newkpt: treating      4 bands with npw=      44 for ikpt=   8 by node    0

--------------------------------------------------------------------------------

-inwffil : will read wavefunctions from disk file t50o_DS1_WFK
- newkpt: read input wf with ikpt,npw=   2      47, make ikpt,npw=   1      47
- newkpt: read input wf with ikpt,npw=   1      44, make ikpt,npw=   2      44
- newkpt: read input wf with ikpt,npw=   4      47, make ikpt,npw=   3      47
- newkpt: read input wf with ikpt,npw=   3      47, make ikpt,npw=   4      47
- newkpt: read input wf with ikpt,npw=   6      47, make ikpt,npw=   5      47
- newkpt: read input wf with ikpt,npw=   5      47, make ikpt,npw=   6      47
- newkpt: read input wf with ikpt,npw=   8      44, make ikpt,npw=   7      44
- newkpt: read input wf with ikpt,npw=   7      47, make ikpt,npw=   8      47

 Initialisation of the first-order wave-functions :
  ireadwf=   0
P newkpt: treating      4 bands with npw=      47 for ikpt=   1 by node    0
P newkpt: treating      4 bands with npw=      44 for ikpt=   2 by node    0
P newkpt: treating      4 bands with npw=      47 for ikpt=   3 by node    0
P newkpt: treating      4 bands with npw=      47 for ikpt=   4 by node    0
P newkpt: treating      4 bands with npw=      47 for ikpt=   5 by node    0
P newkpt: treating      4 bands with npw=      47 for ikpt=   6 by node    0
P newkpt: treating      4 bands with npw=      44 for ikpt=   7 by node    0
P newkpt: treating      4 bands with npw=      47 for ikpt=   8 by node    0


     iter   2DEtotal(Ha)        deltaE(Ha) residm    vres2
-ETOT  1   1.4084760797299     -8.835E+00 3.258E-02 3.960E+01
 ETOT  2   1.2792766750127     -1.292E-01 3.103E-04 2.484E-02
 ETOT  3   1.2792064096794     -7.027E-05 3.570E-07 1.572E-04
 ETOT  4   1.2792061884268     -2.213E-07 1.359E-09 1.076E-07
 ETOT  5   1.2792061882675     -1.593E-10 8.684E-13 1.685E-10

 At SCF step    5       vres2   =  1.68E-10 < tolvrs=  1.00E-08 =>converged.
================================================================================

 ----iterations are completed or convergence reached----

 Mean square residual over all n,k,spin=   2.5196E-13; max=  8.6840E-13
   0.2500  0.2500  0.2500    1  1.60090E-13 kpt; spin; max resid(k); each band:
  1.60E-13 2.57E-14 4.05E-14 5.52E-14
  -0.2500  0.2500  0.2500    1  3.19788E-13 kpt; spin; max resid(k); each band:
  3.20E-13 1.76E-15 4.61E-15 5.72E-15
   0.2500 -0.2500  0.2500    1  8.68401E-13 kpt; spin; max resid(k); each band:
  8.68E-13 4.13E-13 1.42E-13 2.41E-13
  -0.2500 -0.2500  0.2500    1  8.68403E-13 kpt; spin; max resid(k); each band:
  8.68E-13 4.13E-13 3.02E-13 1.70E-13
   0.2500  0.2500 -0.2500    1  8.68402E-13 kpt; spin; max resid(k); each band:
  8.68E-13 4.13E-13 3.02E-13 1.70E-13
  -0.2500  0.2500 -0.2500    1  8.68400E-13 kpt; spin; max resid(k); each band:
  8.68E-13 4.13E-13 1.42E-13 2.41E-13
   0.2500 -0.2500 -0.2500    1  3.19789E-13 kpt; spin; max resid(k); each band:
  3.20E-13 1.76E-15 4.61E-15 5.72E-15
  -0.2500 -0.2500 -0.2500    1  1.60091E-13 kpt; spin; max resid(k); each band:
  1.60E-13 2.57E-14 4.05E-14 5.52E-14

 Thirteen components of 2nd-order total energy (hartree) are
 1,2,3: 0th-order hamiltonian combined with 1st-order wavefunctions
     kin0=   4.07819667E+00 eigvalue=   1.14878735E-01  local=  -8.56680064E-01
 4,5,6: 1st-order hamiltonian combined with 1st and 0th-order wfs
 loc psp =  -1.79292725E+01  Hartree=   2.51571770E+00     xc=  -1.58799601E+00
 note that "loc psp" includes a xc core correction that could be resolved
 7,8,9: eventually, occupation + non-local contributions
    edocc=   4.70051903E+00     enl0=   0.00000000E+00   enl1=   0.00000000E+00
 1-9 gives the relaxation energy (to be shifted if some occ is /=2.0)
   erelax=  -8.96463640E+00
 10,11,12 Non-relaxation  contributions : frozen-wavefunctions and Ewald
 fr.local=   9.33877365E+00 fr.nonlo=   0.00000000E+00  Ewald=   9.05068937E-01
 13,14 Frozen wf xc core corrections (1) and (2)
 frxc 1  =   0.00000000E+00  frxc 2 =   0.00000000E+00
 Resulting in :
 2DEtotal=    0.1279206188E+01 Ha. Also 2DEtotal=    0.348089706250E+02 eV
    (2DErelax=   -8.9646363971E+00 Ha. 2DEnonrelax=    1.0243842585E+01 Ha)
    (  non-var. 2DEtotal :    1.2792063541E+00 Ha)

 Components of second-order derivatives of the electronic energy, EIGR2D.
 For automatic tests, printing the matrix for the first k-point, first band, first atom.
   1   1   1   1   -3.6318984340E+00    0.0000000000E+00
   1   1   2   1    6.8414367685E-01    0.0000000000E+00
   1   1   3   1    6.8414367684E-01    0.0000000000E+00
   2   1   1   1    6.8414367685E-01    0.0000000000E+00
   2   1   2   1   -2.6102084539E+00    0.0000000000E+00
   2   1   3   1    1.2419207352E+00    0.0000000000E+00
   3   1   1   1    6.8414367684E-01    0.0000000000E+00
   3   1   2   1    1.2419207352E+00    0.0000000000E+00
   3   1   3   1   -2.6102084538E+00    0.0000000000E+00
 
 Components of second-order derivatives of the electronic energy, EIGI2D.
 For automatic tests, printing the matrix for the first k-point, first band, first atom.
   1   1   1   1    1.4105017419E-03    0.0000000000E+00
   1   1   2   1   -1.4104636686E-03    0.0000000000E+00
   1   1   3   1   -1.4104636686E-03    0.0000000000E+00
   2   1   1   1   -1.4104636686E-03    0.0000000000E+00
   2   1   2   1    1.4104845702E-03    0.0000000000E+00
   2   1   3   1    1.4104428883E-03    0.0000000000E+00
   3   1   1   1   -1.4104636686E-03    0.0000000000E+00
   3   1   2   1    1.4104428883E-03    0.0000000000E+00
   3   1   3   1    1.4104845703E-03    0.0000000000E+00
================================================================================

 ---- first-order wavefunction calculations are completed ----


 ==> Compute Derivative Database <==
  
  2nd-order matrix (non-cartesian coordinates, masses not included,
   asr not included )
     j1       j2             matrix element
  dir pert dir pert     real part     imaginary part
  
   1    1   1    1         2.8820388655         0.0000000000
   1    1   2    1        -0.6389772213         0.0000000000
   1    1   3    1        -0.6389772213        -0.0000000000
  
   2    1   1    1        -0.6389777699        -0.0000000000
   2    1   2    1         1.2792063475         0.0000000000
   2    1   3    1        -0.0012519787         0.0000000000
  
   3    1   1    1        -0.6389777700         0.0000000000
   3    1   2    1        -0.0012519787        -0.0000000000
   3    1   3    1         1.2792063476         0.0000000000
  
  
  Dynamical matrix, in cartesian coordinates,
   if specified in the inputs, asr has been imposed
     j1       j2             matrix element
  dir pert dir pert     real part    imaginary part
  
   1    1   1    1         0.1382319490         0.0000000000
   1    1   2    1        -0.0000000633         0.0000000000
   1    1   3    1        -0.0000000633        -0.0000000000
  
   2    1   1    1        -0.0000000040        -0.0000000000
   2    1   2    1         0.1559378162        -0.0000000000
   2    1   3    1         0.0866864194         0.0000000000
  
   3    1   1    1        -0.0000000040         0.0000000000
   3    1   2    1         0.0866864194         0.0000000000
   3    1   3    1         0.1559378162         0.0000000000
 
  Phonon wavevector (reduced coordinates) :  0.50000  0.00000  0.00000
 Phonon energies in Hartree :
   3.080797E-03  4.352642E-03  5.766547E-03
 Phonon frequencies in cm-1    :
-  6.761567E+02  9.552945E+02  1.265611E+03
================================================================================

 ---- T=0 shift of eigenenergies due to electron-phonon interation at q ---- 
 Warning : the total shift must be computed through anaddb,                  
 here, only the contribution of one q point is printed.                      
 Print first the electronic eigenvalues, then the q-dependent Fan shift of eigenvalues.

 Eigenvalues (hartree) for nkpt=   8  k points:
 kpt#   1, nband=  4, wtk=  0.12500, kpt=  0.2500  0.2500  0.2500 (reduced coord)
   0.09747   0.46242   0.46242   0.46242
 kpt#   2, nband=  4, wtk=  0.12500, kpt= -0.2500  0.2500  0.2500 (reduced coord)
  -0.19671   0.71559   0.93348   0.93348
 kpt#   3, nband=  4, wtk=  0.12500, kpt=  0.2500 -0.2500  0.2500 (reduced coord)
  -0.19671   0.71559   0.93348   0.93348
 kpt#   4, nband=  4, wtk=  0.12500, kpt= -0.2500 -0.2500  0.2500 (reduced coord)
  -0.19671   0.71559   0.93348   0.93348
 kpt#   5, nband=  4, wtk=  0.12500, kpt=  0.2500  0.2500 -0.2500 (reduced coord)
  -0.19671   0.71559   0.93348   0.93348
 kpt#   6, nband=  4, wtk=  0.12500, kpt= -0.2500  0.2500 -0.2500 (reduced coord)
  -0.19671   0.71559   0.93348   0.93348
 kpt#   7, nband=  4, wtk=  0.12500, kpt=  0.2500 -0.2500 -0.2500 (reduced coord)
  -0.19671   0.71559   0.93348   0.93348
 kpt#   8, nband=  4, wtk=  0.12500, kpt= -0.2500 -0.2500 -0.2500 (reduced coord)
   0.09747   0.46242   0.46242   0.46242


 Fan corrections to eigenvalues at T=0 (hartree) for nkpt=   8  k points:
  (in case of degenerate eigenvalues, averaged derivative)
 kpt#   1, nband=  4, wtk=  0.12500, kpt=  0.2500  0.2500  0.2500 (reduced coord)
  -0.01075  -0.00263  -0.00263  -0.00263
 kpt#   2, nband=  4, wtk=  0.12500, kpt= -0.2500  0.2500  0.2500 (reduced coord)
  -0.00971   0.00200   0.00181   0.00181
 kpt#   3, nband=  4, wtk=  0.12500, kpt=  0.2500 -0.2500  0.2500 (reduced coord)
  -0.00640  -0.01166   0.00128   0.00128
 kpt#   4, nband=  4, wtk=  0.12500, kpt= -0.2500 -0.2500  0.2500 (reduced coord)
  -0.00640  -0.01166   0.00128   0.00128
 kpt#   5, nband=  4, wtk=  0.12500, kpt=  0.2500  0.2500 -0.2500 (reduced coord)
  -0.00640  -0.01166   0.00128   0.00128
 kpt#   6, nband=  4, wtk=  0.12500, kpt= -0.2500  0.2500 -0.2500 (reduced coord)
  -0.00640  -0.01166   0.00128   0.00128
 kpt#   7, nband=  4, wtk=  0.12500, kpt=  0.2500 -0.2500 -0.2500 (reduced coord)
  -0.00971   0.00200   0.00181   0.00181
 kpt#   8, nband=  4, wtk=  0.12500, kpt= -0.2500 -0.2500 -0.2500 (reduced coord)
  -0.01075  -0.00263  -0.00263  -0.00263


 DDW corrections to eigenvalues at T=0 (hartree) for nkpt=   8  k points:
  (in case of degenerate eigenvalues, averaged derivative)
 kpt#   1, nband=  4, wtk=  0.12500, kpt=  0.2500  0.2500  0.2500 (reduced coord)
   0.01436  -0.00204  -0.00204  -0.00204
 kpt#   2, nband=  4, wtk=  0.12500, kpt= -0.2500  0.2500  0.2500 (reduced coord)
   0.00538   0.01002  -0.00044  -0.00044
 kpt#   3, nband=  4, wtk=  0.12500, kpt=  0.2500 -0.2500  0.2500 (reduced coord)
   0.00540   0.00976  -0.00034  -0.00034
 kpt#   4, nband=  4, wtk=  0.12500, kpt= -0.2500 -0.2500  0.2500 (reduced coord)
   0.00540   0.00976  -0.00034  -0.00034
 kpt#   5, nband=  4, wtk=  0.12500, kpt=  0.2500  0.2500 -0.2500 (reduced coord)
   0.00540   0.00976  -0.00034  -0.00034
 kpt#   6, nband=  4, wtk=  0.12500, kpt= -0.2500  0.2500 -0.2500 (reduced coord)
   0.00540   0.00976  -0.00034  -0.00034
 kpt#   7, nband=  4, wtk=  0.12500, kpt=  0.2500 -0.2500 -0.2500 (reduced coord)
   0.00538   0.01002  -0.00044  -0.00044
 kpt#   8, nband=  4, wtk=  0.12500, kpt= -0.2500 -0.2500 -0.2500 (reduced coord)
   0.01436  -0.00204  -0.00204  -0.00204


 Fan+DDW corrs   to eigenvalues at T=0 (hartree) for nkpt=   8  k points:
  (in case of degenerate eigenvalues, averaged derivative)
 kpt#   1, nband=  4, wtk=  0.12500, kpt=  0.2500  0.2500  0.2500 (reduced coord)
   0.00361  -0.00468  -0.00468  -0.00468
 kpt#   2, nband=  4, wtk=  0.12500, kpt= -0.2500  0.2500  0.2500 (reduced coord)
  -0.00433   0.01202   0.00137   0.00137
 kpt#   3, nband=  4, wtk=  0.12500, kpt=  0.2500 -0.2500  0.2500 (reduced coord)
  -0.00101  -0.00191   0.00095   0.00095
 kpt#   4, nband=  4, wtk=  0.12500, kpt= -0.2500 -0.2500  0.2500 (reduced coord)
  -0.00101  -0.00191   0.00095   0.00095
 kpt#   5, nband=  4, wtk=  0.12500, kpt=  0.2500  0.2500 -0.2500 (reduced coord)
  -0.00101  -0.00191   0.00095   0.00095
 kpt#   6, nband=  4, wtk=  0.12500, kpt= -0.2500  0.2500 -0.2500 (reduced coord)
  -0.00101  -0.00191   0.00095   0.00095
 kpt#   7, nband=  4, wtk=  0.12500, kpt=  0.2500 -0.2500 -0.2500 (reduced coord)
  -0.00433   0.01202   0.00137   0.00137
 kpt#   8, nband=  4, wtk=  0.12500, kpt= -0.2500 -0.2500 -0.2500 (reduced coord)
   0.00361  -0.00468  -0.00468  -0.00468

================================================================================
== DATASET  4 ==================================================================
-   nproc =    1

 mkfilename : getwfk/=0, take file _WFK from output of DATASET   1.

 Exchange-correlation functional for the present dataset will be:
  LDA: new Teter (4/93) with spin-polarized option - ixc=1
 Citation for XC functional:
  S. Goedecker, M. Teter, J. Huetter, PRB 54, 1703 (1996)

 Real(R)+Recip(G) space primitive vectors, cartesian coordinates (Bohr,Bohr^-1):
 R(1)= -2.1500000  2.1500000  2.1500000  G(1)=  0.0000000  0.2325581  0.2325581
 R(2)=  2.1500000 -2.1500000  2.1500000  G(2)=  0.2325581  0.0000000  0.2325581
 R(3)=  2.1500000  2.1500000 -2.1500000  G(3)=  0.2325581  0.2325581  0.0000000
 Unit cell volume ucvol=  3.9753500E+01 bohr^3
 Angles (23,13,12)=  1.09471221E+02  1.09471221E+02  1.09471221E+02 degrees
 setup1 : take into account q-point for computing boxcut.

 getcut: wavevector=  0.0000  0.5000  0.0000  ngfft=  10  10  10
         ecut(hartree)=      8.000   => boxcut(ratio)=   1.91566
--------------------------------------------------------------------------------

-inwffil : will read wavefunctions from disk file t50o_DS1_WFK
P newkpt: treating      4 bands with npw=      44 for ikpt=   1 by node    0
[...]
 1-9 gives the relaxation energy (to be shifted if some occ is /=2.0)
   erelax=  -1.40142302E+01
 10,11,12 Non-relaxation  contributions : frozen-wavefunctions and Ewald
 fr.local=   9.33877365E+00 fr.nonlo=   0.00000000E+00  Ewald=   5.84482354E+00
 13,14 Frozen wf xc core corrections (1) and (2)
 frxc 1  =   0.00000000E+00  frxc 2 =   0.00000000E+00
 Resulting in :
 2DEtotal=    0.1169367030E+01 Ha. Also 2DEtotal=    0.318200951320E+02 eV
    (2DErelax=   -1.4014230160E+01 Ha. 2DEnonrelax=    1.5183597190E+01 Ha)
    (  non-var. 2DEtotal :    1.1693663370E+00 Ha)

 Components of second-order derivatives of the electronic energy, EIGR2D.
 For automatic tests, printing the matrix for the first k-point, first band, first atom.
   1   1   1   1   -5.3473413311E+00    0.0000000000E+00
   1   1   2   1    1.7824470935E+00    0.0000000000E+00
   1   1   3   1    1.7824470935E+00    0.0000000000E+00
   2   1   1   1    1.7824470935E+00    0.0000000000E+00
   2   1   2   1   -5.3473413311E+00    0.0000000000E+00
   2   1   3   1    1.7824470935E+00    0.0000000000E+00
   3   1   1   1    1.7824470935E+00    0.0000000000E+00
   3   1   2   1    1.7824470935E+00    0.0000000000E+00
   3   1   3   1   -5.3473413311E+00    0.0000000000E+00
 
 Components of second-order derivatives of the electronic energy, EIGI2D.
 For automatic tests, printing the matrix for the first k-point, first band, first atom.
   1   1   1   1    4.0168284261E-03    0.0000000000E+00
   1   1   2   1   -1.3389428074E-03    0.0000000000E+00
   1   1   3   1   -1.3389428077E-03    0.0000000000E+00
   2   1   1   1   -1.3389428074E-03    0.0000000000E+00
   2   1   2   1    4.0168284268E-03    0.0000000000E+00
   2   1   3   1   -1.3389428080E-03    0.0000000000E+00
   3   1   1   1   -1.3389428077E-03    0.0000000000E+00
   3   1   2   1   -1.3389428080E-03    0.0000000000E+00
   3   1   3   1    4.0168284274E-03    0.0000000000E+00
================================================================================

 ---- first-order wavefunction calculations are completed ----


 ==> Compute Derivative Database <==
  
  2nd-order matrix (non-cartesian coordinates, masses not included,
   asr not included )
     j1       j2             matrix element
  dir pert dir pert     real part     imaginary part
  
   1    1   1    1         1.1693662696         0.0000000000
   1    1   2    1        -0.3897887804        -0.0000000000
   1    1   3    1        -0.3897887805        -0.0000000000
  
   2    1   1    1        -0.3897887804         0.0000000000
   2    1   2    1         1.1693662696         0.0000000000
   2    1   3    1        -0.3897887805         0.0000000000
  
   3    1   1    1        -0.3897887805        -0.0000000000
   3    1   2    1        -0.3897887805        -0.0000000000
   3    1   3    1         1.1693662697         0.0000000000
  
  
  Dynamical matrix, in cartesian coordinates,
   if specified in the inputs, asr has been imposed
     j1       j2             matrix element
  dir pert dir pert     real part    imaginary part
  
   1    1   1    1         0.0843242281        -0.0000000000
   1    1   2    1        -0.0000000039         0.0000000000
   1    1   3    1        -0.0000000039        -0.0000000000
  
   2    1   1    1        -0.0000000039        -0.0000000000
   2    1   2    1         0.0843242281        -0.0000000000
   2    1   3    1        -0.0000000039        -0.0000000000
  
   3    1   1    1        -0.0000000039         0.0000000000
   3    1   2    1        -0.0000000039         0.0000000000
   3    1   3    1         0.0843242281        -0.0000000000
 
  Phonon wavevector (reduced coordinates) :  0.50000  0.50000  0.50000
 Phonon energies in Hartree :
   3.399577E-03  3.399577E-03  3.399577E-03
 Phonon frequencies in cm-1    :
-  7.461210E+02  7.461210E+02  7.461210E+02
================================================================================

 ---- T=0 shift of eigenenergies due to electron-phonon interation at q ---- 
 Warning : the total shift must be computed through anaddb,                  
 here, only the contribution of one q point is printed.                      
 Print first the electronic eigenvalues, then the q-dependent Fan shift of eigenvalues.

 Eigenvalues (hartree) for nkpt=   8  k points:
 kpt#   1, nband=  4, wtk=  0.12500, kpt=  0.2500  0.2500  0.2500 (reduced coord)
   0.09747   0.46242   0.46242   0.46242
 kpt#   2, nband=  4, wtk=  0.12500, kpt= -0.2500  0.2500  0.2500 (reduced coord)
  -0.19671   0.71559   0.93348   0.93348
 kpt#   3, nband=  4, wtk=  0.12500, kpt=  0.2500 -0.2500  0.2500 (reduced coord)
  -0.19671   0.71559   0.93348   0.93348
 kpt#   4, nband=  4, wtk=  0.12500, kpt= -0.2500 -0.2500  0.2500 (reduced coord)
  -0.19671   0.71559   0.93348   0.93348
 kpt#   5, nband=  4, wtk=  0.12500, kpt=  0.2500  0.2500 -0.2500 (reduced coord)
  -0.19671   0.71559   0.93348   0.93348
 kpt#   6, nband=  4, wtk=  0.12500, kpt= -0.2500  0.2500 -0.2500 (reduced coord)
  -0.19671   0.71559   0.93348   0.93348
 kpt#   7, nband=  4, wtk=  0.12500, kpt=  0.2500 -0.2500 -0.2500 (reduced coord)
  -0.19671   0.71559   0.93348   0.93348
 kpt#   8, nband=  4, wtk=  0.12500, kpt= -0.2500 -0.2500 -0.2500 (reduced coord)
   0.09747   0.46242   0.46242   0.46242


 Fan corrections to eigenvalues at T=0 (hartree) for nkpt=   8  k points:
  (in case of degenerate eigenvalues, averaged derivative)
 kpt#   1, nband=  4, wtk=  0.12500, kpt=  0.2500  0.2500  0.2500 (reduced coord)
  -0.02332   0.00422   0.00422   0.00422
 kpt#   2, nband=  4, wtk=  0.12500, kpt= -0.2500  0.2500  0.2500 (reduced coord)
  -0.00806  -0.00717  -0.00088  -0.00088
 kpt#   3, nband=  4, wtk=  0.12500, kpt=  0.2500 -0.2500  0.2500 (reduced coord)
  -0.00806  -0.00717  -0.00088  -0.00088
 kpt#   4, nband=  4, wtk=  0.12500, kpt= -0.2500 -0.2500  0.2500 (reduced coord)
  -0.00806  -0.00717  -0.00088  -0.00088
 kpt#   5, nband=  4, wtk=  0.12500, kpt=  0.2500  0.2500 -0.2500 (reduced coord)
  -0.00806  -0.00717  -0.00088  -0.00088
 kpt#   6, nband=  4, wtk=  0.12500, kpt= -0.2500  0.2500 -0.2500 (reduced coord)
  -0.00806  -0.00717  -0.00088  -0.00088
 kpt#   7, nband=  4, wtk=  0.12500, kpt=  0.2500 -0.2500 -0.2500 (reduced coord)
  -0.00806  -0.00717  -0.00088  -0.00088
 kpt#   8, nband=  4, wtk=  0.12500, kpt= -0.2500 -0.2500 -0.2500 (reduced coord)
  -0.02332   0.00422   0.00422   0.00422


 DDW corrections to eigenvalues at T=0 (hartree) for nkpt=   8  k points:
  (in case of degenerate eigenvalues, averaged derivative)
 kpt#   1, nband=  4, wtk=  0.12500, kpt=  0.2500  0.2500  0.2500 (reduced coord)
   0.01742  -0.00248  -0.00248  -0.00248
 kpt#   2, nband=  4, wtk=  0.12500, kpt= -0.2500  0.2500  0.2500 (reduced coord)
   0.00654   0.01194  -0.00045  -0.00045
 kpt#   3, nband=  4, wtk=  0.12500, kpt=  0.2500 -0.2500  0.2500 (reduced coord)
   0.00654   0.01194  -0.00045  -0.00045
 kpt#   4, nband=  4, wtk=  0.12500, kpt= -0.2500 -0.2500  0.2500 (reduced coord)
   0.00654   0.01194  -0.00045  -0.00045
 kpt#   5, nband=  4, wtk=  0.12500, kpt=  0.2500  0.2500 -0.2500 (reduced coord)
   0.00654   0.01194  -0.00045  -0.00045
 kpt#   6, nband=  4, wtk=  0.12500, kpt= -0.2500  0.2500 -0.2500 (reduced coord)
   0.00654   0.01194  -0.00045  -0.00045
 kpt#   7, nband=  4, wtk=  0.12500, kpt=  0.2500 -0.2500 -0.2500 (reduced coord)
   0.00654   0.01194  -0.00045  -0.00045
 kpt#   8, nband=  4, wtk=  0.12500, kpt= -0.2500 -0.2500 -0.2500 (reduced coord)
   0.01742  -0.00248  -0.00248  -0.00248


 Fan+DDW corrs   to eigenvalues at T=0 (hartree) for nkpt=   8  k points:
  (in case of degenerate eigenvalues, averaged derivative)
 kpt#   1, nband=  4, wtk=  0.12500, kpt=  0.2500  0.2500  0.2500 (reduced coord)
  -0.00590   0.00174   0.00174   0.00174
 kpt#   2, nband=  4, wtk=  0.12500, kpt= -0.2500  0.2500  0.2500 (reduced coord)
  -0.00152   0.00476  -0.00133  -0.00133
 kpt#   3, nband=  4, wtk=  0.12500, kpt=  0.2500 -0.2500  0.2500 (reduced coord)
  -0.00152   0.00476  -0.00133  -0.00133
 kpt#   4, nband=  4, wtk=  0.12500, kpt= -0.2500 -0.2500  0.2500 (reduced coord)
  -0.00152   0.00476  -0.00133  -0.00133
 kpt#   5, nband=  4, wtk=  0.12500, kpt=  0.2500  0.2500 -0.2500 (reduced coord)
  -0.00152   0.00476  -0.00133  -0.00133
 kpt#   6, nband=  4, wtk=  0.12500, kpt= -0.2500  0.2500 -0.2500 (reduced coord)
  -0.00152   0.00476  -0.00133  -0.00133
 kpt#   7, nband=  4, wtk=  0.12500, kpt=  0.2500 -0.2500 -0.2500 (reduced coord)
  -0.00152   0.00476  -0.00133  -0.00133
 kpt#   8, nband=  4, wtk=  0.12500, kpt= -0.2500 -0.2500 -0.2500 (reduced coord)
  -0.00590   0.00174   0.00174   0.00174

== END DATASET(S) ==============================================================
================================================================================
  
 -outvars: echo values of variables after computation  --------
            acell      4.3000000000E+00  4.3000000000E+00  4.3000000000E+00 Bohr
              amu      4.00260200E+00
          bdeigrf           4
           diemac      2.00000000E+00
             ecut      8.00000000E+00 Hartree
           etotal1    -1.6363976146E+00
           etotal2     1.3149090705E-09
           etotal3     1.2792061883E+00
           etotal4     1.2792061883E+00
           etotal5     1.2792062070E+00
           etotal6     2.8820342967E+00
           etotal7     2.8820343149E+00
           etotal8     2.8820343149E+00
           etotal9     1.1693670302E+00
            fcart1     0.0000000000E+00  0.0000000000E+00  0.0000000000E+00
            fcart2     0.0000000000E+00  0.0000000000E+00  0.0000000000E+00
            fcart3     0.0000000000E+00  0.0000000000E+00  0.0000000000E+00
            fcart4     0.0000000000E+00  0.0000000000E+00  0.0000000000E+00
            fcart5     0.0000000000E+00  0.0000000000E+00  0.0000000000E+00
            fcart6     0.0000000000E+00  0.0000000000E+00  0.0000000000E+00
            fcart7     0.0000000000E+00  0.0000000000E+00  0.0000000000E+00
            fcart8     0.0000000000E+00  0.0000000000E+00  0.0000000000E+00
            fcart9     0.0000000000E+00  0.0000000000E+00  0.0000000000E+00
-          fftalg         112
   getgam_eig2nkq1          0
   getgam_eig2nkq2          2
   getgam_eig2nkq3          2
   getgam_eig2nkq4          2
   getgam_eig2nkq5          2
   getgam_eig2nkq6          2
   getgam_eig2nkq7          2
   getgam_eig2nkq8          2
   getgam_eig2nkq9          2
           getwfk1          0
           getwfk2          1
           getwfk3          1
           getwfk4          1
           getwfk5          1
           getwfk6          1
           getwfk7          1
           getwfk8          1
           getwfk9          1
          ieig2rf1          0
          ieig2rf2          1
          ieig2rf3          1
          ieig2rf4          1
          ieig2rf5          1
          ieig2rf6          1
          ieig2rf7          1
          ieig2rf8          1
          ieig2rf9          1
           jdtset        1    2    3    4    5    6    7    8    9
              kpt      2.50000000E-01  2.50000000E-01  2.50000000E-01
                      -2.50000000E-01  2.50000000E-01  2.50000000E-01
                       2.50000000E-01 -2.50000000E-01  2.50000000E-01
                      -2.50000000E-01 -2.50000000E-01  2.50000000E-01
                       2.50000000E-01  2.50000000E-01 -2.50000000E-01
                      -2.50000000E-01  2.50000000E-01 -2.50000000E-01
                       2.50000000E-01 -2.50000000E-01 -2.50000000E-01
                      -2.50000000E-01 -2.50000000E-01 -2.50000000E-01
           kptopt           3
         kptrlatt        2    0    0      0    2    0      0    0    2
          kptrlen      7.44781847E+00
P           mkmem           8
P          mkqmem           8
P          mk1mem           8
            natom           1
            nband           4
           ndtset           9
            ngfft          10      10      10
             nkpt           8
             nqpt1          0
             nqpt2          1
             nqpt3          1
             nqpt4          1
             nqpt5          1
             nqpt6          1
             nqpt7          1
             nqpt8          1
             nqpt9          1
            nstep          40
             nsym           1
           ntypat           1
              occ      2.000000  0.000000  0.000000  0.000000
        optdriver1          0
        optdriver2          1
        optdriver3          1
        optdriver4          1
        optdriver5          1
        optdriver6          1
        optdriver7          1
        optdriver8          1
        optdriver9          1
              qpt1     0.00000000E+00  0.00000000E+00  0.00000000E+00
              qpt2     0.00000000E+00  0.00000000E+00  0.00000000E+00
              qpt3     5.00000000E-01  0.00000000E+00  0.00000000E+00
              qpt4     0.00000000E+00  5.00000000E-01  0.00000000E+00
              qpt5     5.00000000E-01  5.00000000E-01  0.00000000E+00
              qpt6     0.00000000E+00  0.00000000E+00  5.00000000E-01
              qpt7     5.00000000E-01  0.00000000E+00  5.00000000E-01
              qpt8     0.00000000E+00  5.00000000E-01  5.00000000E-01
              qpt9     5.00000000E-01  5.00000000E-01  5.00000000E-01
            rfdir           1       1       1
           rfphon1          0
           rfphon2          1
           rfphon3          1
           rfphon4          1
           rfphon5          1
           rfphon6          1
           rfphon7          1
           rfphon8          1
           rfphon9          1
            rprim     -5.0000000000E-01  5.0000000000E-01  5.0000000000E-01
                       5.0000000000E-01 -5.0000000000E-01  5.0000000000E-01
                       5.0000000000E-01  5.0000000000E-01 -5.0000000000E-01
           shiftk      5.00000000E-01  5.00000000E-01  5.00000000E-01
          spgroup           1
           strten1    -1.6139545439E-03 -1.6139545439E-03 -1.6139545439E-03
                       2.7030019137E-13  0.0000000000E+00 -2.7029455919E-13
           strten2     0.0000000000E+00  0.0000000000E+00  0.0000000000E+00
                       0.0000000000E+00  0.0000000000E+00  0.0000000000E+00
           strten3     0.0000000000E+00  0.0000000000E+00  0.0000000000E+00
                       0.0000000000E+00  0.0000000000E+00  0.0000000000E+00
           strten4     0.0000000000E+00  0.0000000000E+00  0.0000000000E+00
                       0.0000000000E+00  0.0000000000E+00  0.0000000000E+00
           strten5     0.0000000000E+00  0.0000000000E+00  0.0000000000E+00
                       0.0000000000E+00  0.0000000000E+00  0.0000000000E+00
           strten6     0.0000000000E+00  0.0000000000E+00  0.0000000000E+00
                       0.0000000000E+00  0.0000000000E+00  0.0000000000E+00
           strten7     0.0000000000E+00  0.0000000000E+00  0.0000000000E+00
                       0.0000000000E+00  0.0000000000E+00  0.0000000000E+00
           strten8     0.0000000000E+00  0.0000000000E+00  0.0000000000E+00
                       0.0000000000E+00  0.0000000000E+00  0.0000000000E+00
           strten9     0.0000000000E+00  0.0000000000E+00  0.0000000000E+00
                       0.0000000000E+00  0.0000000000E+00  0.0000000000E+00
           tolvrs1     1.00000000E-18
           tolvrs2     1.00000000E-08
           tolvrs3     1.00000000E-08
           tolvrs4     1.00000000E-08
           tolvrs5     1.00000000E-08
           tolvrs6     1.00000000E-08
           tolvrs7     1.00000000E-08
           tolvrs8     1.00000000E-08
           tolvrs9     1.00000000E-08
            typat      1
              wtk        0.12500    0.12500    0.12500    0.12500    0.12500    0.12500
                         0.12500    0.12500
            znucl        2.00000

================================================================================


- Timing analysis has been suppressed with timopt=0



================================================================================

 Suggested references for the acknowledgment of ABINIT usage.

 The users of ABINIT have little formal obligations with respect to the ABINIT group
 (those specified in the GNU General Public License, http://www.gnu.org/copyleft/gpl.txt).
 However, it is common practice in the scientific literature,
 to acknowledge the efforts of people that have made the research possible.
 In this spirit, please find below suggested citations of work written by ABINIT developers,
 corresponding to implementations inside of ABINIT that you have used in the present run.
 Note also that it will be of great value to readers of publications presenting these results,
 to read papers enabling them to understand the theoretical formalism and details
 of the ABINIT implementation.
 For information on why they are suggested, see also http://www.abinit.org/about/?text=acknowledgments.

 [1] First-principles responses of solids to atomic displacements and homogeneous electric fields:,
 implementation of a conjugate-gradient algorithm. X. Gonze, Phys. Rev. B55, 10337 (1997).
 Comment : Non-vanishing rfphon and/or rfelfd, in the norm-conserving case.

 [2] Dynamical matrices, Born effective charges, dielectric permittivity tensors, and ,
 interatomic force constants from density-functional perturbation theory,
 X. Gonze and C. Lee, Phys. Rev. B55, 10355 (1997).
 Comment : Non-vanishing rfphon and/or rfelfd, in the norm-conserving case.

 [3] ABINIT : First-principles approach of materials and nanosystem properties.
 X. Gonze, B. Amadon, P.-M. Anglade, J.-M. Beuken, F. Bottin, P. Boulanger, F. Bruneval,
 D. Caliste, R. Caracas, M. Cote, T. Deutsch, L. Genovese, Ph. Ghosez, M. Giantomassi
 S. Goedecker, D.R. Hamann, P. Hermet, F. Jollet, G. Jomard, S. Leroux, M. Mancini, S. Mazevet,
 M.J.T. Oliveira, G. Onida, Y. Pouillon, T. Rangel, G.-M. Rignanese, D. Sangalli, R. Shaltaf,
 M. Torrent, M.J. Verstraete, G. Zerah, J.W. Zwanziger
 Computer Phys. Comm. 180, 2582-2615 (2009).
 Comment : the third generic paper describing the ABINIT project.
 Note that a version of this paper, that is not formatted for Computer Phys. Comm. 
 is available at http://www.abinit.org/about/ABINIT_CPC_v10.pdf .
 The licence allows the authors to put it on the Web.

 [4] A brief introduction to the ABINIT software package.
 X. Gonze, G.-M. Rignanese, M. Verstraete, J.-M. Beuken, Y. Pouillon, R. Caracas, F. Jollet,
 M. Torrent, G. Zerah, M. Mikami, Ph. Ghosez, M. Veithen, J.-Y. Raty, V. Olevano, F. Bruneval,
 L. Reining, R. Godby, G. Onida, D.R. Hamann, and D.C. Allan.
 Z. Kristallogr. 220, 558-562 (2005).
 Comment : the second generic paper describing the ABINIT project. Note that this paper
 should be cited especially if you are using the GW part of ABINIT, as several authors
 of this part are not in the list of authors of the first or third paper.
 The .pdf of the latter paper is available at http://www.abinit.org/about/zfk_0505-06_558-562.pdf.
 Note that it should not redistributed (Copyright by Oldenburg Wissenshaftverlag,
 the licence allows the authors to put it on the Web).


 And optionally :

 [5] First-principles computation of material properties : the ABINIT software project. 
 X. Gonze, J.-M. Beuken, R. Caracas, F. Detraux, M. Fuchs, G.-M. Rignanese, L. Sindic,
 M. Verstraete, G. Zerah, F. Jollet, M. Torrent, A. Roy, M. Mikami, Ph. Ghosez, J.-Y. Raty, D.C. Allan.
 Computational Materials Science 25, 478-492 (2002). http://dx.doi.org/10.1016/S0927-0256(02)00325-7
 Comment : the original paper describing the ABINIT project.
-
- Proc.   0 individual time (sec): cpu=          2.0  wall=          2.0

================================================================================

 Calculation completed.
.Delivered  126 WARNINGs and  48 COMMENTs to log file.
+Overall time at end (sec) : cpu=          2.0  wall=          2.0
