
.Version 7.9.3 of ABINIT 
.(MPI version, prepared for a x86_64_linux_gnu4.7 computer) 

.Copyright (C) 1998-2014 ABINIT group . 
 ABINIT comes with ABSOLUTELY NO WARRANTY.
 It is free software, and you are welcome to redistribute it
 under certain conditions (GNU General Public License,
 see ~abinit/COPYING or http://www.gnu.org/copyleft/gpl.txt).

 ABINIT is a project of the Universite Catholique de Louvain,
 Corning Inc. and other collaborators, see ~abinit/doc/developers/contributors.txt .
 Please read ~abinit/doc/users/acknowledgments.html for suggested
 acknowledgments of the ABINIT effort.
 For more information, see http://www.abinit.org .

.Starting date : Sat 30 Aug 2014.
- ( at 22h41 )
  
- input  file    -> t67.in
- output file    -> t67.out
- root for input  files -> t67i
- root for output files -> t67o


 DATASET   11 : space group P1 (#  1); Bravais aP (primitive triclinic)
================================================================================
 Values of the parameters that define the memory need for DATASET 11.
   intxc =         0  ionmov =         0    iscf =         7 xclevel =         1
  lmnmax =         1   lnmax =         1   mband =         2  mffmem =         1
P  mgfft =        32   mkmem =         5 mpssoang=         1     mpw =       796
  mqgrid =      3001   natom =         2    nfft =     12800    nkpt =         5
  nloalg =         4  nspden =         2 nspinor =         1  nsppol =         2
    nsym =         1  n1xccc =         0  ntypat =         1  occopt =         2
================================================================================
P This job should need less than                       6.017 Mbytes of memory.
  Rough estimation (10% accuracy) of disk space for files :
_ WF disk file :      0.184 Mbytes ; DEN or POT disk file :      0.197 Mbytes.
================================================================================


 DATASET   12 : space group P1 (#  1); Bravais aP (primitive triclinic)
================================================================================
 Values of the parameters that define the memory need for DATASET 12.
   intxc =         0  ionmov =         0    iscf =        -2 xclevel =         1
  lmnmax =         1   lnmax =         1   mband =         2  mffmem =         1
P  mgfft =        32   mkmem =         5 mpssoang=         1     mpw =       796
  mqgrid =      3001   natom =         2    nfft =     12800    nkpt =         5
  nloalg =         4  nspden =         2 nspinor =         1  nsppol =         2
    nsym =         1  n1xccc =         0  ntypat =         1  occopt =         2
================================================================================
P This job should need less than                       2.892 Mbytes of memory.
  Rough estimation (10% accuracy) of disk space for files :
_ WF disk file :      0.184 Mbytes ; DEN or POT disk file :      0.197 Mbytes.
================================================================================


 DATASET   13 : space group P1 (#  1); Bravais aP (primitive triclinic)
================================================================================
 Values of the parameters that define the memory need for DATASET 13 (RF).
   intxc =         0    iscf =         7 xclevel =         1  lmnmax =         1
   lnmax =         1   mband =         2  mffmem =         1   mgfft =        32
P  mkmem =         5  mkqmem =         5  mk1mem =         5 mpssoang=         1
     mpw =       796  mqgrid =      3001   natom =         2    nfft =     12800
    nkpt =         5  nloalg =         4  nspden =         2 nspinor =         1
  nsppol =         2    nsym =         1  n1xccc =         0  ntypat =         1
  occopt =         2
================================================================================
P This job should need less than                       4.830 Mbytes of memory.
  Rough estimation (10% accuracy) of disk space for files :
_ WF disk file :      0.184 Mbytes ; DEN or POT disk file :      0.197 Mbytes.
================================================================================


 DATASET   14 : space group P1 (#  1); Bravais aP (primitive triclinic)
================================================================================
 Values of the parameters that define the memory need for DATASET 14 (RF).
   intxc =         0    iscf =         7 xclevel =         1  lmnmax =         1
   lnmax =         1   mband =         2  mffmem =         1   mgfft =        32
P  mkmem =         5  mkqmem =         5  mk1mem =         5 mpssoang=         1
     mpw =       796  mqgrid =      3001   natom =         2    nfft =     12800
    nkpt =         5  nloalg =         4  nspden =         2 nspinor =         1
  nsppol =         2    nsym =         1  n1xccc =         0  ntypat =         1
  occopt =         2
================================================================================
P This job should need less than                       4.830 Mbytes of memory.
  Rough estimation (10% accuracy) of disk space for files :
_ WF disk file :      0.184 Mbytes ; DEN or POT disk file :      0.197 Mbytes.
================================================================================


 DATASET   15 : space group P1 (#  1); Bravais aP (primitive triclinic)
================================================================================
 Values of the parameters that define the memory need for DATASET 15.
   intxc =         0  ionmov =         0    iscf =         7 xclevel =         1
  lmnmax =         1   lnmax =         1   mband =         2  mffmem =         1
P  mgfft =        32   mkmem =         5 mpssoang=         1     mpw =       796
  mqgrid =      3001   natom =         2    nfft =     12800    nkpt =         5
  nloalg =         4  nspden =         2 nspinor =         1  nsppol =         2
    nsym =         1  n1xccc =         0  ntypat =         1  occopt =         2
================================================================================
P This job should need less than                       6.017 Mbytes of memory.
  Rough estimation (10% accuracy) of disk space for files :
_ WF disk file :      0.184 Mbytes ; DEN or POT disk file :      0.197 Mbytes.
================================================================================


 DATASET   21 : space group P1 (#  1); Bravais aP (primitive triclinic)
================================================================================
 Values of the parameters that define the memory need for DATASET 21.
   intxc =         0  ionmov =         0    iscf =         7 xclevel =         1
  lmnmax =         1   lnmax =         1   mband =         2  mffmem =         1
P  mgfft =        32   mkmem =         5 mpssoang=         1     mpw =       796
  mqgrid =      3001   natom =         2    nfft =     12800    nkpt =         5
  nloalg =         4  nspden =         2 nspinor =         1  nsppol =         2
    nsym =         1  n1xccc =         0  ntypat =         1  occopt =         2
================================================================================
P This job should need less than                       6.017 Mbytes of memory.
  Rough estimation (10% accuracy) of disk space for files :
_ WF disk file :      0.184 Mbytes ; DEN or POT disk file :      0.197 Mbytes.
================================================================================


 DATASET   22 : space group P1 (#  1); Bravais aP (primitive triclinic)
================================================================================
 Values of the parameters that define the memory need for DATASET 22.
   intxc =         0  ionmov =         0    iscf =        -2 xclevel =         1
  lmnmax =         1   lnmax =         1   mband =         2  mffmem =         1
P  mgfft =        32   mkmem =         5 mpssoang=         1     mpw =       796
  mqgrid =      3001   natom =         2    nfft =     12800    nkpt =         5
  nloalg =         4  nspden =         2 nspinor =         1  nsppol =         2
    nsym =         1  n1xccc =         0  ntypat =         1  occopt =         2
================================================================================
P This job should need less than                       2.892 Mbytes of memory.
  Rough estimation (10% accuracy) of disk space for files :
_ WF disk file :      0.184 Mbytes ; DEN or POT disk file :      0.197 Mbytes.
================================================================================


 DATASET   23 : space group P1 (#  1); Bravais aP (primitive triclinic)
================================================================================
 Values of the parameters that define the memory need for DATASET 23 (RF).
   intxc =         0    iscf =         7 xclevel =         1  lmnmax =         1
   lnmax =         1   mband =         2  mffmem =         1   mgfft =        32
P  mkmem =         5  mkqmem =         5  mk1mem =         5 mpssoang=         1
     mpw =       796  mqgrid =      3001   natom =         2    nfft =     12800
    nkpt =         5  nloalg =         4  nspden =         2 nspinor =         1
  nsppol =         2    nsym =         1  n1xccc =         0  ntypat =         1
  occopt =         2
================================================================================
P This job should need less than                       4.830 Mbytes of memory.
  Rough estimation (10% accuracy) of disk space for files :
_ WF disk file :      0.184 Mbytes ; DEN or POT disk file :      0.197 Mbytes.
================================================================================


 DATASET   24 : space group P1 (#  1); Bravais aP (primitive triclinic)
================================================================================
 Values of the parameters that define the memory need for DATASET 24 (RF).
   intxc =         0    iscf =         7 xclevel =         1  lmnmax =         1
   lnmax =         1   mband =         2  mffmem =         1   mgfft =        32
P  mkmem =         5  mkqmem =         5  mk1mem =         5 mpssoang=         1
     mpw =       796  mqgrid =      3001   natom =         2    nfft =     12800
    nkpt =         5  nloalg =         4  nspden =         2 nspinor =         1
  nsppol =         2    nsym =         1  n1xccc =         0  ntypat =         1
  occopt =         2
================================================================================
P This job should need less than                       4.830 Mbytes of memory.
  Rough estimation (10% accuracy) of disk space for files :
_ WF disk file :      0.184 Mbytes ; DEN or POT disk file :      0.197 Mbytes.
================================================================================


 DATASET   25 : space group P1 (#  1); Bravais aP (primitive triclinic)
================================================================================
 Values of the parameters that define the memory need for DATASET 25.
   intxc =         0  ionmov =         0    iscf =         7 xclevel =         1
  lmnmax =         1   lnmax =         1   mband =         2  mffmem =         1
P  mgfft =        32   mkmem =         5 mpssoang=         1     mpw =       796
  mqgrid =      3001   natom =         2    nfft =     12800    nkpt =         5
  nloalg =         4  nspden =         2 nspinor =         1  nsppol =         2
    nsym =         1  n1xccc =         0  ntypat =         1  occopt =         2
================================================================================
P This job should need less than                       6.017 Mbytes of memory.
  Rough estimation (10% accuracy) of disk space for files :
_ WF disk file :      0.184 Mbytes ; DEN or POT disk file :      0.197 Mbytes.
================================================================================

--------------------------------------------------------------------------------
------------- Echo of variables that govern the present computation ------------
--------------------------------------------------------------------------------
-
- outvars: echo of selected default values                                      
-   accesswff0 =  0 , fftalg0 =112 , wfoptalg0 =  0
-
- outvars: echo of global parameters not present in the input file              
-  max_nthreads =    0
-
 -outvars: echo values of preprocessed input variables --------
            acell      8.0000000000E+00  5.0000000000E+00  5.0000000000E+00 Bohr
              amu      4.00260200E+00
           charge      1.00000000E+00
           diemac      1.00000000E+00
           diemix      3.33333333E-01
          dilatmx      1.05000000E+00
             ecut      1.70000000E+01 Hartree
           ecutsm      5.00000000E-01 Hartree
-          fftalg         112
           getddk11         0
           getddk12         0
           getddk13         0
           getddk14        -1
           getddk15         0
           getddk21         0
           getddk22         0
           getddk23         0
           getddk24        -1
           getddk25         0
           getden11         0
           getden12        -1
           getden13         0
           getden14         0
           getden15        -4
           getden21         0
           getden22        -1
           getden23         0
           getden24         0
           getden25        -4
           getwfk11         0
           getwfk12        -1
           getwfk13        -1
           getwfk14        -2
           getwfk15        -3
           getwfk21         0
           getwfk22        -1
           getwfk23        -1
           getwfk24        -2
           getwfk25        -3
          get1den11         0
          get1den12         0
          get1den13         0
          get1den14         0
          get1den15        -1
          get1den21         0
          get1den22         0
          get1den23         0
          get1den24         0
          get1den25        -1
           get1wf11         0
           get1wf12         0
           get1wf13         0
           get1wf14         0
           get1wf15        -1
           get1wf21         0
           get1wf22         0
           get1wf23         0
           get1wf24         0
           get1wf25        -1
             iscf11         7
             iscf12        -2
             iscf13         7
             iscf14         7
             iscf15         7
             iscf21         7
             iscf22        -2
             iscf23         7
             iscf24         7
             iscf25         7
              ixc           7
           jdtset       11   12   13   14   15   21   22   23   24   25
              kpt      5.00000000E-02  5.00000000E-01  5.00000000E-01
                       1.50000000E-01  5.00000000E-01  5.00000000E-01
                       2.50000000E-01  5.00000000E-01  5.00000000E-01
                       3.50000000E-01  5.00000000E-01  5.00000000E-01
                       4.50000000E-01  5.00000000E-01  5.00000000E-01
           kptopt11         1
           kptopt12         2
           kptopt13         2
           kptopt14         2
           kptopt15         2
           kptopt21         1
           kptopt22         2
           kptopt23         2
           kptopt24         2
           kptopt25         2
         kptrlatt       10    0    0      0    1    0      0    0    1
          kptrlen      5.00000000E+00
P           mkmem           5
P          mkqmem           5
P          mk1mem           5
            natom           2
            nband           2       2       2       2       2       1       1       1
                            1       1
           ndtset          10
            ngfft          32      20      20
             nkpt           5
           nspden           2
           nsppol           2
            nstep         100
             nsym           1
            ntime         100
           ntypat           1
              occ      1.000000  1.000000
                       1.000000  1.000000
                       1.000000  1.000000
                       1.000000  1.000000
                       1.000000  1.000000
                       1.000000
                       1.000000
                       1.000000
                       1.000000
                       1.000000
           occopt           2
        optdriver11         0
        optdriver12         0
        optdriver13         1
        optdriver14         1
        optdriver15         5
        optdriver21         0
        optdriver22         0
        optdriver23         1
        optdriver24         1
        optdriver25         5
          prepanl11         0
          prepanl12         0
          prepanl13         0
          prepanl14         1
          prepanl15         0
          prepanl21         0
          prepanl22         0
          prepanl23         0
          prepanl24         1
          prepanl25         0
          rfatpol11         1       1
          rfatpol12         1       1
          rfatpol13         1       1
          rfatpol14         1       2
          rfatpol15         1       1
          rfatpol21         1       1
          rfatpol22         1       1
          rfatpol23         1       1
          rfatpol24         1       2
          rfatpol25         1       1
            rfdir11         0       0       0
            rfdir12         0       0       0
            rfdir13         1       1       1
            rfdir14         1       1       1
            rfdir15         0       0       0
            rfdir21         0       0       0
            rfdir22         0       0       0
            rfdir23         1       1       1
            rfdir24         1       1       1
            rfdir25         0       0       0
           rfelfd11         0
           rfelfd12         0
           rfelfd13         2
           rfelfd14         3
           rfelfd15         0
           rfelfd21         0
           rfelfd22         0
           rfelfd23         2
           rfelfd24         3
           rfelfd25         0
           rfphon11         0
           rfphon12         0
           rfphon13         0
           rfphon14         1
           rfphon15         0
           rfphon21         0
           rfphon22         0
           rfphon23         0
           rfphon24         1
           rfphon25         0
           rf1dir11         0       0       0
           rf1dir12         0       0       0
           rf1dir13         0       0       0
           rf1dir14         0       0       0
           rf1dir15         1       0       0
           rf1dir21         0       0       0
           rf1dir22         0       0       0
           rf1dir23         0       0       0
           rf1dir24         0       0       0
           rf1dir25         1       0       0
          rf1elfd11         0
          rf1elfd12         0
          rf1elfd13         0
          rf1elfd14         0
          rf1elfd15         1
          rf1elfd21         0
          rf1elfd22         0
          rf1elfd23         0
          rf1elfd24         0
          rf1elfd25         1
          rf1phon11         0
          rf1phon12         0
          rf1phon13         0
          rf1phon14         0
          rf1phon15         1
          rf1phon21         0
          rf1phon22         0
          rf1phon23         0
          rf1phon24         0
          rf1phon25         1
           rf2dir11         0       0       0
           rf2dir12         0       0       0
           rf2dir13         0       0       0
           rf2dir14         0       0       0
           rf2dir15         1       0       0
           rf2dir21         0       0       0
           rf2dir22         0       0       0
           rf2dir23         0       0       0
           rf2dir24         0       0       0
           rf2dir25         1       0       0
          rf2elfd11         0
          rf2elfd12         0
          rf2elfd13         0
          rf2elfd14         0
          rf2elfd15         1
          rf2elfd21         0
          rf2elfd22         0
          rf2elfd23         0
          rf2elfd24         0
          rf2elfd25         1
           rf3dir11         0       0       0
           rf3dir12         0       0       0
           rf3dir13         0       0       0
           rf3dir14         0       0       0
           rf3dir15         1       0       0
           rf3dir21         0       0       0
           rf3dir22         0       0       0
           rf3dir23         0       0       0
           rf3dir24         0       0       0
           rf3dir25         1       0       0
          rf3elfd11         0
          rf3elfd12         0
          rf3elfd13         0
          rf3elfd14         0
          rf3elfd15         1
          rf3elfd21         0
          rf3elfd22         0
          rf3elfd23         0
          rf3elfd24         0
          rf3elfd25         1
           shiftk      5.00000000E-01  5.00000000E-01  5.00000000E-01
          spgroup           1
           toldfe11    1.00000000E-12 Hartree
           toldfe12    0.00000000E+00 Hartree
           toldfe13    0.00000000E+00 Hartree
           toldfe14    0.00000000E+00 Hartree
           toldfe15    0.00000000E+00 Hartree
           toldfe21    1.00000000E-12 Hartree
           toldfe22    0.00000000E+00 Hartree
           toldfe23    0.00000000E+00 Hartree
           toldfe24    0.00000000E+00 Hartree
           toldfe25    0.00000000E+00 Hartree
           tolvrs11    0.00000000E+00
           tolvrs12    0.00000000E+00
           tolvrs13    0.00000000E+00
           tolvrs14    1.00000000E-22
           tolvrs15    0.00000000E+00
           tolvrs21    0.00000000E+00
           tolvrs22    0.00000000E+00
           tolvrs23    0.00000000E+00
           tolvrs24    1.00000000E-22
           tolvrs25    0.00000000E+00
           tolwfr11    0.00000000E+00
           tolwfr12    1.00000000E-22
           tolwfr13    1.00000000E-22
           tolwfr14    0.00000000E+00
           tolwfr15    0.00000000E+00
           tolwfr21    0.00000000E+00
           tolwfr22    1.00000000E-22
           tolwfr23    1.00000000E-22
           tolwfr24    0.00000000E+00
           tolwfr25    0.00000000E+00
            typat      1  1
              wtk        0.20000    0.20000    0.20000    0.20000    0.20000
           xangst11   -5.2917720859E-01  0.0000000000E+00  0.0000000000E+00
                       5.2917720859E-01  0.0000000000E+00  0.0000000000E+00
           xangst12   -5.2917720859E-01  0.0000000000E+00  0.0000000000E+00
                       5.2917720859E-01  0.0000000000E+00  0.0000000000E+00
           xangst13   -5.2917720859E-01  0.0000000000E+00  0.0000000000E+00
                       5.2917720859E-01  0.0000000000E+00  0.0000000000E+00
           xangst14   -5.2917720859E-01  0.0000000000E+00  0.0000000000E+00
                       5.2917720859E-01  0.0000000000E+00  0.0000000000E+00
           xangst15   -5.2917720859E-01  0.0000000000E+00  0.0000000000E+00
                       5.2917720859E-01  0.0000000000E+00  0.0000000000E+00
           xangst21   -5.2388543650E-01  0.0000000000E+00  0.0000000000E+00
                       5.2917720859E-01  0.0000000000E+00  0.0000000000E+00
           xangst22   -5.2388543650E-01  0.0000000000E+00  0.0000000000E+00
                       5.2917720859E-01  0.0000000000E+00  0.0000000000E+00
           xangst23   -5.2388543650E-01  0.0000000000E+00  0.0000000000E+00
                       5.2917720859E-01  0.0000000000E+00  0.0000000000E+00
           xangst24   -5.2388543650E-01  0.0000000000E+00  0.0000000000E+00
                       5.2917720859E-01  0.0000000000E+00  0.0000000000E+00
           xangst25   -5.2388543650E-01  0.0000000000E+00  0.0000000000E+00
                       5.2917720859E-01  0.0000000000E+00  0.0000000000E+00
            xcart11   -1.0000000000E+00  0.0000000000E+00  0.0000000000E+00
                       1.0000000000E+00  0.0000000000E+00  0.0000000000E+00
            xcart12   -1.0000000000E+00  0.0000000000E+00  0.0000000000E+00
                       1.0000000000E+00  0.0000000000E+00  0.0000000000E+00
            xcart13   -1.0000000000E+00  0.0000000000E+00  0.0000000000E+00
                       1.0000000000E+00  0.0000000000E+00  0.0000000000E+00
            xcart14   -1.0000000000E+00  0.0000000000E+00  0.0000000000E+00
                       1.0000000000E+00  0.0000000000E+00  0.0000000000E+00
            xcart15   -1.0000000000E+00  0.0000000000E+00  0.0000000000E+00
                       1.0000000000E+00  0.0000000000E+00  0.0000000000E+00
            xcart21   -9.9000000000E-01  0.0000000000E+00  0.0000000000E+00
                       1.0000000000E+00  0.0000000000E+00  0.0000000000E+00
            xcart22   -9.9000000000E-01  0.0000000000E+00  0.0000000000E+00
                       1.0000000000E+00  0.0000000000E+00  0.0000000000E+00
            xcart23   -9.9000000000E-01  0.0000000000E+00  0.0000000000E+00
                       1.0000000000E+00  0.0000000000E+00  0.0000000000E+00
            xcart24   -9.9000000000E-01  0.0000000000E+00  0.0000000000E+00
                       1.0000000000E+00  0.0000000000E+00  0.0000000000E+00
            xcart25   -9.9000000000E-01  0.0000000000E+00  0.0000000000E+00
                       1.0000000000E+00  0.0000000000E+00  0.0000000000E+00
             xred11   -1.2500000000E-01  0.0000000000E+00  0.0000000000E+00
                       1.2500000000E-01  0.0000000000E+00  0.0000000000E+00
             xred12   -1.2500000000E-01  0.0000000000E+00  0.0000000000E+00
                       1.2500000000E-01  0.0000000000E+00  0.0000000000E+00
             xred13   -1.2500000000E-01  0.0000000000E+00  0.0000000000E+00
                       1.2500000000E-01  0.0000000000E+00  0.0000000000E+00
             xred14   -1.2500000000E-01  0.0000000000E+00  0.0000000000E+00
                       1.2500000000E-01  0.0000000000E+00  0.0000000000E+00
             xred15   -1.2500000000E-01  0.0000000000E+00  0.0000000000E+00
                       1.2500000000E-01  0.0000000000E+00  0.0000000000E+00
             xred21   -1.2375000000E-01  0.0000000000E+00  0.0000000000E+00
                       1.2500000000E-01  0.0000000000E+00  0.0000000000E+00
             xred22   -1.2375000000E-01  0.0000000000E+00  0.0000000000E+00
                       1.2500000000E-01  0.0000000000E+00  0.0000000000E+00
             xred23   -1.2375000000E-01  0.0000000000E+00  0.0000000000E+00
                       1.2500000000E-01  0.0000000000E+00  0.0000000000E+00
             xred24   -1.2375000000E-01  0.0000000000E+00  0.0000000000E+00
                       1.2500000000E-01  0.0000000000E+00  0.0000000000E+00
             xred25   -1.2375000000E-01  0.0000000000E+00  0.0000000000E+00
                       1.2500000000E-01  0.0000000000E+00  0.0000000000E+00
            znucl        2.00000

================================================================================

 chkinp: Checking input parameters for consistency, jdtset=  11.

 chkinp: Checking input parameters for consistency, jdtset=  12.

 chkinp: Checking input parameters for consistency, jdtset=  13.

 chkinp: Checking input parameters for consistency, jdtset=  14.

 chkinp: Checking input parameters for consistency, jdtset=  15.

 chkinp: Checking input parameters for consistency, jdtset=  21.

 chkinp: Checking input parameters for consistency, jdtset=  22.

 chkinp: Checking input parameters for consistency, jdtset=  23.

 chkinp: Checking input parameters for consistency, jdtset=  24.

 chkinp: Checking input parameters for consistency, jdtset=  25.

================================================================================
== DATASET 11 ==================================================================
-   nproc =    1

 Exchange-correlation functional for the present dataset will be:
  LDA: Perdew-Wang 92 LSD fit to Ceperley-Alder data - ixc=7
 Citation for XC functional:
  J.P.Perdew and Y.Wang, PRB 45, 13244 (1992)

 Real(R)+Recip(G) space primitive vectors, cartesian coordinates (Bohr,Bohr^-1):
 R(1)=  8.0000000  0.0000000  0.0000000  G(1)=  0.1250000  0.0000000  0.0000000
 R(2)=  0.0000000  5.0000000  0.0000000  G(2)=  0.0000000  0.2000000  0.0000000
 R(3)=  0.0000000  0.0000000  5.0000000  G(3)=  0.0000000  0.0000000  0.2000000
 Unit cell volume ucvol=  2.0000000E+02 bohr^3
 Angles (23,13,12)=  9.00000000E+01  9.00000000E+01  9.00000000E+01 degrees

 getcut: wavevector=  0.0000  0.0000  0.0000  ngfft=  32  20  20
         ecut(hartree)=     18.743   => boxcut(ratio)=   2.05249

--- Pseudopotential description ------------------------------------------------
- pspini: atom type   1  psp file is /home/gonze/ABINIT/ABINITv7.9.3/trunk/7.9.3-private/tests/Psps_for_tests/02he.bare
- pspatm: opening atomic psp file    /home/gonze/ABINIT/ABINITv7.9.3/trunk/7.9.3-private/tests/Psps_for_tests/02he.bare
- Bare (erfc) Goedecker-Teter-Hutter  Wed May  8 14:27:44 EDT 1996
-  2.00000   2.00000    960508                znucl, zion, pspdat
    2    1    0    0      2001   0.00000      pspcod,pspxc,lmax,lloc,mmax,r2well
 rloc=   0.0010000
  cc1=   0.0000000; cc2=   0.0000000; cc3=   0.0000000; cc4=   0.0000000
  rrs=   0.0000000; h1s=   0.0000000; h2s=   0.0000000
  rrp=   0.0000000; h1p=   0.0000000
-  Local part computed in reciprocal space.

 pspatm : COMMENT -
  the projectors are not normalized,
  so that the KB energies are not consistent with 
  definition in PRB44, 8503 (1991). 
  However, this does not influence the results obtained hereafter.
 pspatm: epsatm=    0.00001257
         --- l  ekb(1:nproj) -->
 pspatm: atomic psp has been read  and splines computed

   1.00530965E-04                                ecore*ucvol(ha*bohr**3)
--------------------------------------------------------------------------------

P newkpt: treating      2 bands with npw=     768 for ikpt=   1 by node    0
P newkpt: treating      2 bands with npw=     784 for ikpt=   2 by node    0
P newkpt: treating      2 bands with npw=     784 for ikpt=   3 by node    0
P newkpt: treating      2 bands with npw=     796 for ikpt=   4 by node    0
P newkpt: treating      2 bands with npw=     784 for ikpt=   5 by node    0
P newkpt: treating      1 bands with npw=     768 for ikpt=   1 by node    0
P newkpt: treating      1 bands with npw=     784 for ikpt=   2 by node    0
P newkpt: treating      1 bands with npw=     784 for ikpt=   3 by node    0
P newkpt: treating      1 bands with npw=     796 for ikpt=   4 by node    0
P newkpt: treating      1 bands with npw=     784 for ikpt=   5 by node    0

_setup2: Arith. and geom. avg. npw (full set) are     783.200     783.149

================================================================================

     iter   Etot(hartree)      deltaE(h)  residm     vres2
 ETOT  1  -4.7705329906600    -4.771E+00 8.014E-03 2.628E+02
 ETOT  2  -4.7859742880120    -1.544E-02 5.303E-08 1.024E+02
 ETOT  3  -4.7938528844211    -7.879E-03 8.246E-05 2.566E-01
 ETOT  4  -4.7938869875118    -3.410E-05 1.138E-07 1.079E-01
 ETOT  5  -4.7939122302644    -2.524E-05 3.087E-07 9.920E-04
 ETOT  6  -4.7939123920778    -1.618E-07 1.567E-09 2.562E-04
 ETOT  7  -4.7939124313574    -3.928E-08 2.323E-09 6.549E-06
 ETOT  8  -4.7939124321605    -8.031E-10 7.802E-11 3.300E-06
 ETOT  9  -4.7939124326303    -4.698E-10 5.494E-10 1.400E-06
 ETOT 10  -4.7939124328667    -2.364E-10 3.366E-11 3.475E-07
 ETOT 11  -4.7939124329426    -7.590E-11 4.154E-11 5.816E-09
 ETOT 12  -4.7939124329439    -1.270E-12 6.228E-13 1.191E-10
 ETOT 13  -4.7939124329440    -1.190E-13 1.303E-14 3.012E-12
 ETOT 14  -4.7939124329439     8.615E-14 2.600E-16 7.739E-14

 At SCF step   14, etot is converged : 
  for the second time, diff in etot=  8.615E-14 < toldfe=  1.000E-12

 Cartesian components of stress tensor (hartree/bohr^3)
  sigma(1 1)=  3.23732173E-04  sigma(3 2)=  9.98380277E-15
  sigma(2 2)= -1.69915486E-04  sigma(3 1)=  1.82087576E-15
  sigma(3 3)= -1.69915488E-04  sigma(2 1)=  0.00000000E+00

================================================================================

 ----iterations are completed or convergence reached----

 Mean square residual over all n,k,spin=   1.8934E-16; max=  2.5998E-16
   0.0500  0.5000  0.5000    1  2.59978E-16 kpt; spin; max resid(k); each band:
  2.60E-16 2.60E-16
   0.1500  0.5000  0.5000    1  2.59658E-16 kpt; spin; max resid(k); each band:
  2.59E-16 2.60E-16
   0.2500  0.5000  0.5000    1  2.58986E-16 kpt; spin; max resid(k); each band:
  2.59E-16 2.59E-16
   0.3500  0.5000  0.5000    1  2.59058E-16 kpt; spin; max resid(k); each band:
  2.59E-16 2.59E-16
   0.4500  0.5000  0.5000    1  2.58995E-16 kpt; spin; max resid(k); each band:
  2.59E-16 2.59E-16
   0.0500  0.5000  0.5000    2  3.96748E-17 kpt; spin; max resid(k); each band:
  3.97E-17
   0.1500  0.5000  0.5000    2  4.50493E-17 kpt; spin; max resid(k); each band:
  4.50E-17
   0.2500  0.5000  0.5000    2  5.49590E-17 kpt; spin; max resid(k); each band:
  5.50E-17
   0.3500  0.5000  0.5000    2  5.29560E-17 kpt; spin; max resid(k); each band:
  5.30E-17
   0.4500  0.5000  0.5000    2  5.61203E-17 kpt; spin; max resid(k); each band:
  5.61E-17
 reduced coordinates (array xred) for    2 atoms
      -0.125000000000      0.000000000000      0.000000000000
       0.125000000000      0.000000000000      0.000000000000
 rms dE/dt=  2.0677E-01; max dE/dt=  3.5814E-01; dE/dt below (all hartree)
    1       0.358140667531      0.000000000003      0.000000000018
    2      -0.358140666340     -0.000000000015     -0.000000000030

 cartesian coordinates (angstrom) at end:
    1     -0.52917720859000     0.00000000000000     0.00000000000000
    2      0.52917720859000     0.00000000000000     0.00000000000000

 cartesian forces (hartree/bohr) at end:
    1     -0.04476758336698    -0.00000000000184    -0.00000000000473
    2      0.04476758336698     0.00000000000184     0.00000000000473
 frms,max,avg= 2.5846576E-02 4.4767583E-02  -7.444E-11  1.254E-12  1.195E-12 h/b

 cartesian forces (eV/Angstrom) at end:
    1     -2.30204150086002    -0.00000000009462    -0.00000000024298
    2      2.30204150086002     0.00000000009462     0.00000000024298
 frms,max,avg= 1.3290843E+00 2.3020415E+00  -3.828E-09  6.449E-11  6.144E-11 e/A
 length scales=  8.000000000000  5.000000000000  5.000000000000 bohr
              =  4.233417668720  2.645886042950  2.645886042950 angstroms
 prteigrs : about to open file t67o_DS11_EIG
 Fermi (or HOMO) energy (hartree) =  -0.47220   Average Vxc (hartree)=  -0.14384
 Eigenvalues (hartree) for nkpt=   5  k points, SPIN UP:
 kpt#   1, nband=  2, wtk=  0.20000, kpt=  0.0500  0.5000  0.5000 (reduced coord)
  -0.84546  -0.47220
 kpt#   2, nband=  2, wtk=  0.20000, kpt=  0.1500  0.5000  0.5000 (reduced coord)
  -0.84496  -0.47237
 kpt#   3, nband=  2, wtk=  0.20000, kpt=  0.2500  0.5000  0.5000 (reduced coord)
  -0.84420  -0.47276
 kpt#   4, nband=  2, wtk=  0.20000, kpt=  0.3500  0.5000  0.5000 (reduced coord)
  -0.84513  -0.47642
 kpt#   5, nband=  2, wtk=  0.20000, kpt=  0.4500  0.5000  0.5000 (reduced coord)
  -0.84521  -0.47768
 Eigenvalues (hartree) for nkpt=   5  k points, SPIN DOWN:
 kpt#   1, nband=  1, wtk=  0.20000, kpt=  0.0500  0.5000  0.5000 (reduced coord)
  -0.74807
 kpt#   2, nband=  1, wtk=  0.20000, kpt=  0.1500  0.5000  0.5000 (reduced coord)
  -0.74757
 kpt#   3, nband=  1, wtk=  0.20000, kpt=  0.2500  0.5000  0.5000 (reduced coord)
  -0.74686
 kpt#   4, nband=  1, wtk=  0.20000, kpt=  0.3500  0.5000  0.5000 (reduced coord)
  -0.74769
 kpt#   5, nband=  1, wtk=  0.20000, kpt=  0.4500  0.5000  0.5000 (reduced coord)
  -0.74773
 Total charge density [el/Bohr^3]
,     Maximum=    9.5822E-01  at reduced coord.    0.8750    0.0000    0.0000
,Next maximum=    9.5822E-01  at reduced coord.    0.1250    0.0000    0.0000
,     Minimum=    4.0376E-24  at reduced coord.    0.0000    0.5000    0.0000
,Next minimum=    3.9161E-24  at reduced coord.    0.0313    0.5000    0.0000
,  Integrated=    3.0000E+00
 Spin up density      [el/Bohr^3]
,     Maximum=    6.7292E-01  at reduced coord.    0.8750    0.0000    0.0000
,Next maximum=    6.7292E-01  at reduced coord.    0.1250    0.0000    0.0000
,     Minimum=    1.7071E-26  at reduced coord.    0.0000    0.5000    0.0000
,Next minimum=    1.4290E-26  at reduced coord.    0.0313    0.5000    0.0000
,  Integrated=    2.0000E+00
 Spin down density    [el/Bohr^3]
,     Maximum=    2.8530E-01  at reduced coord.    0.8750    0.0000    0.0000
,Next maximum=    2.8530E-01  at reduced coord.    0.1250    0.0000    0.0000
,     Minimum=    4.0206E-24  at reduced coord.    0.0000    0.5000    0.0000
,Next minimum=    3.9018E-24  at reduced coord.    0.0313    0.5000    0.0000
,  Integrated=    1.0000E+00
 Magnetization (spin up - spin down) [el/Bohr^3]
,     Maximum=    3.8763E-01  at reduced coord.    0.8750    0.0000    0.0000
,Next maximum=    3.8763E-01  at reduced coord.    0.1250    0.0000    0.0000
,     Minimum=   -5.2679E-03  at reduced coord.    0.0000    0.0000    0.0000
,Next minimum=   -5.0230E-03  at reduced coord.    0.0000    0.0500    0.0000
,  Integrated=    1.0000E+00
 Relative magnetization (=zeta, between -1 and 1)
,     Maximum=    9.8054E-01  at reduced coord.    0.3125    0.6500    0.5500
,Next maximum=    9.8054E-01  at reduced coord.    0.3125    0.5500    0.6500
,     Minimum=   -2.1779E-01  at reduced coord.    0.0000    0.4000    0.4500
,Next minimum=   -2.1779E-01  at reduced coord.    0.0000    0.4500    0.4000

--------------------------------------------------------------------------------
 Components of total free energy (in Hartree) :

    Kinetic energy  =  4.00681380769332E+00
    Hartree energy  =  1.58433651546949E+00
    XC energy       = -1.46221283118293E+00
    Ewald energy    = -1.59795996427760E+00
    PspCore energy  =  5.02654824574367E-07
    Loc. psp. energy= -7.32489046330099E+00
    NL   psp  energy=  0.00000000000000E+00
    >>>>>>>>> Etotal= -4.79391243294389E+00

 Other information on the energy :
    Total energy(eV)= -1.30448991404063E+02 ; Band energy (Ha)=  -2.0668661099E+00

 Calculation was performed for a charged system with PBC
 You may consider including the monopole correction to the total energy
 The correction is to be divided by the dielectric constant
    Monopole correction (Ha)= 2.22440061134641E-01
    Monopole correction (eV)= 6.05290188937659E+00
--------------------------------------------------------------------------------

 Cartesian components of stress tensor (hartree/bohr^3)
  sigma(1 1)=  3.23732173E-04  sigma(3 2)=  9.98380277E-15
  sigma(2 2)= -1.69915486E-04  sigma(3 1)=  1.82087576E-15
  sigma(3 3)= -1.69915488E-04  sigma(2 1)=  0.00000000E+00

-Cartesian components of stress tensor (GPa)         [Pressure=  1.5788E-01 GPa]
- sigma(1 1)=  9.52452776E+00  sigma(3 2)=  2.93733569E-10
- sigma(2 2)= -4.99908535E+00  sigma(3 1)=  5.35720053E-11
- sigma(3 3)= -4.99908540E+00  sigma(2 1)=  0.00000000E+00

================================================================================
== DATASET 12 ==================================================================
-   nproc =    1

 mkfilename : getwfk/=0, take file _WFK from output of DATASET  11.

 mkfilename : getden/=0, take file _DEN from output of DATASET  11.

 Exchange-correlation functional for the present dataset will be:
  LDA: Perdew-Wang 92 LSD fit to Ceperley-Alder data - ixc=7
 Citation for XC functional:
  J.P.Perdew and Y.Wang, PRB 45, 13244 (1992)

 Real(R)+Recip(G) space primitive vectors, cartesian coordinates (Bohr,Bohr^-1):
 R(1)=  8.0000000  0.0000000  0.0000000  G(1)=  0.1250000  0.0000000  0.0000000
 R(2)=  0.0000000  5.0000000  0.0000000  G(2)=  0.0000000  0.2000000  0.0000000
 R(3)=  0.0000000  0.0000000  5.0000000  G(3)=  0.0000000  0.0000000  0.2000000
 Unit cell volume ucvol=  2.0000000E+02 bohr^3
 Angles (23,13,12)=  9.00000000E+01  9.00000000E+01  9.00000000E+01 degrees

 getcut: wavevector=  0.0000  0.0000  0.0000  ngfft=  32  20  20
         ecut(hartree)=     18.743   => boxcut(ratio)=   2.05249
--------------------------------------------------------------------------------

-inwffil : will read wavefunctions from disk file t67o_DS11_WFK
P newkpt: treating      2 bands with npw=     768 for ikpt=   1 by node    0
P newkpt: treating      2 bands with npw=     784 for ikpt=   2 by node    0
P newkpt: treating      2 bands with npw=     784 for ikpt=   3 by node    0
P newkpt: treating      2 bands with npw=     796 for ikpt=   4 by node    0
P newkpt: treating      2 bands with npw=     784 for ikpt=   5 by node    0
P newkpt: treating      1 bands with npw=     768 for ikpt=   1 by node    0
P newkpt: treating      1 bands with npw=     784 for ikpt=   2 by node    0
P newkpt: treating      1 bands with npw=     784 for ikpt=   3 by node    0
P newkpt: treating      1 bands with npw=     796 for ikpt=   4 by node    0
P newkpt: treating      1 bands with npw=     784 for ikpt=   5 by node    0


================================================================================
 prteigrs : about to open file t67o_DS12_EIG

 SPIN UP channel
 Non-SCF case, kpt    1 (  0.05000  0.50000  0.50000), residuals and eigenvalues=
  2.42E-23  3.28E-24
 -8.4546E-01 -4.7220E-01
 Non-SCF case, kpt    2 (  0.15000  0.50000  0.50000), residuals and eigenvalues=
  2.38E-23  3.52E-24
 -8.4496E-01 -4.7237E-01
 Non-SCF case, kpt    3 (  0.25000  0.50000  0.50000), residuals and eigenvalues=
  2.50E-23  4.60E-24
 -8.4420E-01 -4.7276E-01
 Non-SCF case, kpt    4 (  0.35000  0.50000  0.50000), residuals and eigenvalues=
  2.26E-23  4.50E-24
 -8.4513E-01 -4.7642E-01
 Non-SCF case, kpt    5 (  0.45000  0.50000  0.50000), residuals and eigenvalues=
  2.01E-23  4.80E-24
 -8.4521E-01 -4.7768E-01

 SPIN DOWN channel
 Non-SCF case, kpt    1 (  0.05000  0.50000  0.50000), residuals and eigenvalues=
  7.64E-23
 -7.4807E-01
 Non-SCF case, kpt    2 (  0.15000  0.50000  0.50000), residuals and eigenvalues=
  8.82E-23
 -7.4757E-01
 Non-SCF case, kpt    3 (  0.25000  0.50000  0.50000), residuals and eigenvalues=
  6.25E-23
 -7.4686E-01
 Non-SCF case, kpt    4 (  0.35000  0.50000  0.50000), residuals and eigenvalues=
  8.83E-23
 -7.4769E-01
 Non-SCF case, kpt    5 (  0.45000  0.50000  0.50000), residuals and eigenvalues=
  9.04E-23
 -7.4773E-01
================================================================================

 ----iterations are completed or convergence reached----

 Mean square residual over all n,k,spin=   3.6146E-23; max=  9.0432E-23
   0.0500  0.5000  0.5000    1  2.42062E-23 kpt; spin; max resid(k); each band:
  2.42E-23 3.28E-24
   0.1500  0.5000  0.5000    1  2.37518E-23 kpt; spin; max resid(k); each band:
  2.38E-23 3.52E-24
   0.2500  0.5000  0.5000    1  2.50004E-23 kpt; spin; max resid(k); each band:
  2.50E-23 4.60E-24
   0.3500  0.5000  0.5000    1  2.25683E-23 kpt; spin; max resid(k); each band:
  2.26E-23 4.50E-24
   0.4500  0.5000  0.5000    1  2.01186E-23 kpt; spin; max resid(k); each band:
  2.01E-23 4.80E-24
   0.0500  0.5000  0.5000    2  7.64115E-23 kpt; spin; max resid(k); each band:
  7.64E-23
   0.1500  0.5000  0.5000    2  8.81745E-23 kpt; spin; max resid(k); each band:
  8.82E-23
   0.2500  0.5000  0.5000    2  6.25219E-23 kpt; spin; max resid(k); each band:
  6.25E-23
   0.3500  0.5000  0.5000    2  8.83030E-23 kpt; spin; max resid(k); each band:
  8.83E-23
   0.4500  0.5000  0.5000    2  9.04319E-23 kpt; spin; max resid(k); each band:
  9.04E-23
 reduced coordinates (array xred) for    2 atoms
      -0.125000000000      0.000000000000      0.000000000000
       0.125000000000      0.000000000000      0.000000000000

 cartesian coordinates (angstrom) at end:
    1     -0.52917720859000     0.00000000000000     0.00000000000000
    2      0.52917720859000     0.00000000000000     0.00000000000000
 length scales=  8.000000000000  5.000000000000  5.000000000000 bohr
              =  4.233417668720  2.645886042950  2.645886042950 angstroms
 prteigrs : about to open file t67o_DS12_EIG
 Eigenvalues (hartree) for nkpt=   5  k points, SPIN UP:
 kpt#   1, nband=  2, wtk=  0.20000, kpt=  0.0500  0.5000  0.5000 (reduced coord)
  -0.84546  -0.47220
 kpt#   2, nband=  2, wtk=  0.20000, kpt=  0.1500  0.5000  0.5000 (reduced coord)
  -0.84496  -0.47237
 kpt#   3, nband=  2, wtk=  0.20000, kpt=  0.2500  0.5000  0.5000 (reduced coord)
  -0.84420  -0.47276
 kpt#   4, nband=  2, wtk=  0.20000, kpt=  0.3500  0.5000  0.5000 (reduced coord)
  -0.84513  -0.47642
 kpt#   5, nband=  2, wtk=  0.20000, kpt=  0.4500  0.5000  0.5000 (reduced coord)
  -0.84521  -0.47768
 Eigenvalues (hartree) for nkpt=   5  k points, SPIN DOWN:
 kpt#   1, nband=  1, wtk=  0.20000, kpt=  0.0500  0.5000  0.5000 (reduced coord)
  -0.74807
 kpt#   2, nband=  1, wtk=  0.20000, kpt=  0.1500  0.5000  0.5000 (reduced coord)
  -0.74757
 kpt#   3, nband=  1, wtk=  0.20000, kpt=  0.2500  0.5000  0.5000 (reduced coord)
  -0.74686
 kpt#   4, nband=  1, wtk=  0.20000, kpt=  0.3500  0.5000  0.5000 (reduced coord)
  -0.74769
 kpt#   5, nband=  1, wtk=  0.20000, kpt=  0.4500  0.5000  0.5000 (reduced coord)
  -0.74773
 Total charge density [el/Bohr^3]
,     Maximum=    9.5822E-01  at reduced coord.    0.8750    0.0000    0.0000
,Next maximum=    9.5822E-01  at reduced coord.    0.1250    0.0000    0.0000
,     Minimum=    4.0376E-24  at reduced coord.    0.0000    0.5000    0.0000
,Next minimum=    3.9161E-24  at reduced coord.    0.0313    0.5000    0.0000
,  Integrated=    3.0000E+00
 Spin up density      [el/Bohr^3]
,     Maximum=    6.7292E-01  at reduced coord.    0.8750    0.0000    0.0000
,Next maximum=    6.7292E-01  at reduced coord.    0.1250    0.0000    0.0000
,     Minimum=    1.7071E-26  at reduced coord.    0.0000    0.5000    0.0000
,Next minimum=    1.4290E-26  at reduced coord.    0.0313    0.5000    0.0000
,  Integrated=    2.0000E+00
 Spin down density    [el/Bohr^3]
,     Maximum=    2.8530E-01  at reduced coord.    0.8750    0.0000    0.0000
,Next maximum=    2.8530E-01  at reduced coord.    0.1250    0.0000    0.0000
,     Minimum=    4.0206E-24  at reduced coord.    0.0000    0.5000    0.0000
,Next minimum=    3.9018E-24  at reduced coord.    0.0313    0.5000    0.0000
,  Integrated=    1.0000E+00
 Magnetization (spin up - spin down) [el/Bohr^3]
,     Maximum=    3.8763E-01  at reduced coord.    0.8750    0.0000    0.0000
,Next maximum=    3.8763E-01  at reduced coord.    0.1250    0.0000    0.0000
,     Minimum=   -5.2679E-03  at reduced coord.    0.0000    0.0000    0.0000
,Next minimum=   -5.0230E-03  at reduced coord.    0.0000    0.0500    0.0000
,  Integrated=    1.0000E+00
 Relative magnetization (=zeta, between -1 and 1)
,     Maximum=    9.8054E-01  at reduced coord.    0.3125    0.6500    0.5500
,Next maximum=    9.8054E-01  at reduced coord.    0.3125    0.5500    0.6500
,     Minimum=   -2.1779E-01  at reduced coord.    0.0000    0.4000    0.4500
,Next minimum=   -2.1779E-01  at reduced coord.    0.0000    0.4500    0.4000

================================================================================
== DATASET 13 ==================================================================
-   nproc =    1

 mkfilename : getwfk/=0, take file _WFK from output of DATASET  12.

 Exchange-correlation functional for the present dataset will be:
  LDA: Perdew-Wang 92 LSD fit to Ceperley-Alder data - ixc=7
 Citation for XC functional:
  J.P.Perdew and Y.Wang, PRB 45, 13244 (1992)

 Real(R)+Recip(G) space primitive vectors, cartesian coordinates (Bohr,Bohr^-1):
 R(1)=  8.0000000  0.0000000  0.0000000  G(1)=  0.1250000  0.0000000  0.0000000
 R(2)=  0.0000000  5.0000000  0.0000000  G(2)=  0.0000000  0.2000000  0.0000000
 R(3)=  0.0000000  0.0000000  5.0000000  G(3)=  0.0000000  0.0000000  0.2000000
 Unit cell volume ucvol=  2.0000000E+02 bohr^3
 Angles (23,13,12)=  9.00000000E+01  9.00000000E+01  9.00000000E+01 degrees

 getcut: wavevector=  0.0000  0.0000  0.0000  ngfft=  32  20  20
         ecut(hartree)=     18.743   => boxcut(ratio)=   2.05249
--------------------------------------------------------------------------------

-inwffil : will read wavefunctions from disk file t67o_DS12_WFK
P newkpt: treating      2 bands with npw=     768 for ikpt=   1 by node    0
P newkpt: treating      2 bands with npw=     784 for ikpt=   2 by node    0
P newkpt: treating      2 bands with npw=     784 for ikpt=   3 by node    0
P newkpt: treating      2 bands with npw=     796 for ikpt=   4 by node    0
P newkpt: treating      2 bands with npw=     784 for ikpt=   5 by node    0
P newkpt: treating      1 bands with npw=     768 for ikpt=   1 by node    0
P newkpt: treating      1 bands with npw=     784 for ikpt=   2 by node    0
P newkpt: treating      1 bands with npw=     784 for ikpt=   3 by node    0
P newkpt: treating      1 bands with npw=     796 for ikpt=   4 by node    0
P newkpt: treating      1 bands with npw=     784 for ikpt=   5 by node    0


 ==>  initialize data related to q vector <== 

 The list of irreducible perturbations for this q vector is:
    1)    idir= 1    ipert=   3
    2)    idir= 2    ipert=   3
    3)    idir= 3    ipert=   3

================================================================================

--------------------------------------------------------------------------------
 Perturbation wavevector (in red.coord.)   0.000000  0.000000  0.000000
 Perturbation : derivative vs k along direction   1

 loper3 : COMMENT -
  In a d/dk calculation, iscf is set to -3 automatically.
 The set of symmetries contains only one element for this perturbation.
 symkpt : not enough symmetry to change the number of k points.

--------------------------------------------------------------------------------

-inwffil : will read wavefunctions from disk file t67o_DS12_WFK
P newkpt: treating      2 bands with npw=     768 for ikpt=   1 by node    0
P newkpt: treating      2 bands with npw=     784 for ikpt=   2 by node    0
P newkpt: treating      2 bands with npw=     784 for ikpt=   3 by node    0
P newkpt: treating      2 bands with npw=     796 for ikpt=   4 by node    0
P newkpt: treating      2 bands with npw=     784 for ikpt=   5 by node    0
P newkpt: treating      1 bands with npw=     768 for ikpt=   1 by node    0
P newkpt: treating      1 bands with npw=     784 for ikpt=   2 by node    0
P newkpt: treating      1 bands with npw=     784 for ikpt=   3 by node    0
P newkpt: treating      1 bands with npw=     796 for ikpt=   4 by node    0
P newkpt: treating      1 bands with npw=     784 for ikpt=   5 by node    0

--------------------------------------------------------------------------------

-inwffil : will read wavefunctions from disk file t67o_DS12_WFK
P newkpt: treating      2 bands with npw=     768 for ikpt=   1 by node    0
P newkpt: treating      2 bands with npw=     784 for ikpt=   2 by node    0
P newkpt: treating      2 bands with npw=     784 for ikpt=   3 by node    0
P newkpt: treating      2 bands with npw=     796 for ikpt=   4 by node    0
P newkpt: treating      2 bands with npw=     784 for ikpt=   5 by node    0
P newkpt: treating      1 bands with npw=     768 for ikpt=   1 by node    0
P newkpt: treating      1 bands with npw=     784 for ikpt=   2 by node    0
P newkpt: treating      1 bands with npw=     784 for ikpt=   3 by node    0
P newkpt: treating      1 bands with npw=     796 for ikpt=   4 by node    0
P newkpt: treating      1 bands with npw=     784 for ikpt=   5 by node    0

 Initialisation of the first-order wave-functions :
  ireadwf=   0
P newkpt: treating      2 bands with npw=     768 for ikpt=   1 by node    0
P newkpt: treating      2 bands with npw=     784 for ikpt=   2 by node    0
P newkpt: treating      2 bands with npw=     784 for ikpt=   3 by node    0
P newkpt: treating      2 bands with npw=     796 for ikpt=   4 by node    0
P newkpt: treating      2 bands with npw=     784 for ikpt=   5 by node    0
P newkpt: treating      1 bands with npw=     768 for ikpt=   1 by node    0
P newkpt: treating      1 bands with npw=     784 for ikpt=   2 by node    0
P newkpt: treating      1 bands with npw=     784 for ikpt=   3 by node    0
P newkpt: treating      1 bands with npw=     796 for ikpt=   4 by node    0
P newkpt: treating      1 bands with npw=     784 for ikpt=   5 by node    0


     iter   2DEtotal(Ha)        deltaE(Ha) residm    vres2
-ETOT  1  -4.8310113282038     -4.831E+00 2.318E-01 0.000E+00
 ETOT  2  -4.8328097515638     -1.798E-03 3.614E-05 0.000E+00
 ETOT  3  -4.8328165955053     -6.844E-06 1.827E-06 0.000E+00
 ETOT  4  -4.8328166064723     -1.097E-08 2.858E-10 0.000E+00
 ETOT  5  -4.8328166065068     -3.446E-11 1.743E-11 0.000E+00
 ETOT  6  -4.8328166065069     -1.421E-13 4.070E-15 0.000E+00
 ETOT  7  -4.8328166065069     -6.217E-15 2.148E-16 0.000E+00
 ETOT  8  -4.8328166065069      6.217E-15 6.336E-20 0.000E+00
 ETOT  9  -4.8328166065069      8.882E-15 3.079E-21 0.000E+00
 ETOT 10  -4.8328166065069     -1.776E-15 9.255E-23 0.000E+00

 At SCF step   10   max residual=  9.25E-23 < tolwfr=  1.00E-22 =>converged.
================================================================================

 ----iterations are completed or convergence reached----

 Mean square residual over all n,k,spin=   3.5568E-23; max=  9.2550E-23
   0.0500  0.5000  0.5000    1  3.25682E-23 kpt; spin; max resid(k); each band:
  2.83E-23 3.26E-23
   0.1500  0.5000  0.5000    1  3.73384E-23 kpt; spin; max resid(k); each band:
  3.73E-23 2.99E-23
   0.2500  0.5000  0.5000    1  6.20460E-23 kpt; spin; max resid(k); each band:
  6.20E-23 1.47E-23
   0.3500  0.5000  0.5000    1  3.38071E-23 kpt; spin; max resid(k); each band:
  3.38E-23 1.74E-23
   0.4500  0.5000  0.5000    1  1.57239E-23 kpt; spin; max resid(k); each band:
  9.58E-24 1.57E-23
   0.0500  0.5000  0.5000    2  1.57275E-23 kpt; spin; max resid(k); each band:
  1.57E-23
   0.1500  0.5000  0.5000    2  3.28907E-23 kpt; spin; max resid(k); each band:
  3.29E-23
   0.2500  0.5000  0.5000    2  3.60699E-23 kpt; spin; max resid(k); each band:
  3.61E-23
   0.3500  0.5000  0.5000    2  7.49462E-23 kpt; spin; max resid(k); each band:
  7.49E-23
   0.4500  0.5000  0.5000    2  9.25497E-23 kpt; spin; max resid(k); each band:
  9.25E-23
 loper3 : ek2=    3.7011016504E+00
          f-sum rule ratio=    2.6115557275E+00 (note : ecutsm/=0)
 prteigrs : about to open file t67_1WF1_EIG
 Expectation of eigenvalue derivatives (hartree) for nkpt=   5  k points, SPIN UP:
  (in case of degenerate eigenvalues, averaged derivative)
 kpt#   1, nband=  2, wtk=  0.20000, kpt=  0.0500  0.5000  0.5000 (reduced coord)
  -0.00753  -0.01604
 kpt#   2, nband=  2, wtk=  0.20000, kpt=  0.1500  0.5000  0.5000 (reduced coord)
   0.01949   0.02304
 kpt#   3, nband=  2, wtk=  0.20000, kpt=  0.2500  0.5000  0.5000 (reduced coord)
  -0.01468  -0.03619
 kpt#   4, nband=  2, wtk=  0.20000, kpt=  0.3500  0.5000  0.5000 (reduced coord)
  -0.00219  -0.01553
 kpt#   5, nband=  2, wtk=  0.20000, kpt=  0.4500  0.5000  0.5000 (reduced coord)
  -0.00143  -0.01759
 Expectation of eigenvalue derivatives (hartree) for nkpt=   5  k points, SPIN DOWN:
  (in case of degenerate eigenvalues, averaged derivative)
 kpt#   1, nband=  1, wtk=  0.20000, kpt=  0.0500  0.5000  0.5000 (reduced coord)
  -0.00636
 kpt#   2, nband=  1, wtk=  0.20000, kpt=  0.1500  0.5000  0.5000 (reduced coord)
   0.01799
 kpt#   3, nband=  1, wtk=  0.20000, kpt=  0.2500  0.5000  0.5000 (reduced coord)
  -0.01318
 kpt#   4, nband=  1, wtk=  0.20000, kpt=  0.3500  0.5000  0.5000 (reduced coord)
  -0.00162
 kpt#   5, nband=  1, wtk=  0.20000, kpt=  0.4500  0.5000  0.5000 (reduced coord)
  -0.00103

 Eight components of 2nd-order total energy (hartree) are
 1,2,3: 0th-order hamiltonian combined with 1st-order wavefunctions
     kin0=   6.39507394E+00 eigvalue=   1.45696363E+00  local=  -3.01922096E+00
 4,5,6: 1st-order hamiltonian combined with 1st and 0th-order wfs
     kin1=  -9.66563321E+00  Hartree=   0.00000000E+00     xc=   0.00000000E+00
 7,8,9: eventually, occupation + non-local contributions
    edocc=   0.00000000E+00     enl0=   0.00000000E+00   enl1=   1.33226763E-16
 1-9 gives the relaxation energy (to be shifted if some occ is /=2.0)
   erelax=  -4.83281661E+00
  No Ewald or frozen-wf contrib.: the relaxation energy is the total one
 2DEtotal=   -0.4832816607E+01 Ha. Also 2DEtotal=   -0.131507627805E+03 eV
    (  non-var. 2DEtotal :   -4.8328166065E+00 Ha)

--------------------------------------------------------------------------------
 Perturbation wavevector (in red.coord.)   0.000000  0.000000  0.000000
 Perturbation : derivative vs k along direction   2
 The set of symmetries contains only one element for this perturbation.
 symkpt : not enough symmetry to change the number of k points.

--------------------------------------------------------------------------------

-inwffil : will read wavefunctions from disk file t67o_DS12_WFK
P newkpt: treating      2 bands with npw=     768 for ikpt=   1 by node    0
P newkpt: treating      2 bands with npw=     784 for ikpt=   2 by node    0
P newkpt: treating      2 bands with npw=     784 for ikpt=   3 by node    0
P newkpt: treating      2 bands with npw=     796 for ikpt=   4 by node    0
P newkpt: treating      2 bands with npw=     784 for ikpt=   5 by node    0
P newkpt: treating      1 bands with npw=     768 for ikpt=   1 by node    0
P newkpt: treating      1 bands with npw=     784 for ikpt=   2 by node    0
P newkpt: treating      1 bands with npw=     784 for ikpt=   3 by node    0
P newkpt: treating      1 bands with npw=     796 for ikpt=   4 by node    0
P newkpt: treating      1 bands with npw=     784 for ikpt=   5 by node    0

--------------------------------------------------------------------------------

-inwffil : will read wavefunctions from disk file t67o_DS12_WFK
P newkpt: treating      2 bands with npw=     768 for ikpt=   1 by node    0
P newkpt: treating      2 bands with npw=     784 for ikpt=   2 by node    0
P newkpt: treating      2 bands with npw=     784 for ikpt=   3 by node    0
P newkpt: treating      2 bands with npw=     796 for ikpt=   4 by node    0
P newkpt: treating      2 bands with npw=     784 for ikpt=   5 by node    0
P newkpt: treating      1 bands with npw=     768 for ikpt=   1 by node    0
P newkpt: treating      1 bands with npw=     784 for ikpt=   2 by node    0
P newkpt: treating      1 bands with npw=     784 for ikpt=   3 by node    0
P newkpt: treating      1 bands with npw=     796 for ikpt=   4 by node    0
P newkpt: treating      1 bands with npw=     784 for ikpt=   5 by node    0

 Initialisation of the first-order wave-functions :
  ireadwf=   0
P newkpt: treating      2 bands with npw=     768 for ikpt=   1 by node    0
P newkpt: treating      2 bands with npw=     784 for ikpt=   2 by node    0
P newkpt: treating      2 bands with npw=     784 for ikpt=   3 by node    0
P newkpt: treating      2 bands with npw=     796 for ikpt=   4 by node    0
P newkpt: treating      2 bands with npw=     784 for ikpt=   5 by node    0
P newkpt: treating      1 bands with npw=     768 for ikpt=   1 by node    0
P newkpt: treating      1 bands with npw=     784 for ikpt=   2 by node    0
P newkpt: treating      1 bands with npw=     784 for ikpt=   3 by node    0
P newkpt: treating      1 bands with npw=     796 for ikpt=   4 by node    0
P newkpt: treating      1 bands with npw=     784 for ikpt=   5 by node    0


     iter   2DEtotal(Ha)        deltaE(Ha) residm    vres2
-ETOT  1  -12.388124644089     -1.239E+01 9.091E-02 0.000E+00
 ETOT  2  -12.389363202572     -1.239E-03 5.386E-05 0.000E+00
 ETOT  3  -12.389363570781     -3.682E-07 1.169E-08 0.000E+00
 ETOT  4  -12.389363570986     -2.048E-10 7.270E-12 0.000E+00
 ETOT  5  -12.389363570986     -1.208E-13 4.414E-15 0.000E+00
 ETOT  6  -12.389363570986     -7.105E-15 3.219E-18 0.000E+00
 ETOT  7  -12.389363570986     -1.421E-14 2.421E-21 0.000E+00
 ETOT  8  -12.389363570986      0.000E+00 9.701E-23 0.000E+00

 At SCF step    8   max residual=  9.70E-23 < tolwfr=  1.00E-22 =>converged.
================================================================================

 ----iterations are completed or convergence reached----

 Mean square residual over all n,k,spin=   4.4028E-23; max=  9.7007E-23
   0.0500  0.5000  0.5000    1  7.55883E-23 kpt; spin; max resid(k); each band:
  7.56E-23 2.20E-23
   0.1500  0.5000  0.5000    1  2.24943E-23 kpt; spin; max resid(k); each band:
  2.25E-23 2.00E-23
   0.2500  0.5000  0.5000    1  3.48924E-23 kpt; spin; max resid(k); each band:
  3.22E-23 3.49E-23
   0.3500  0.5000  0.5000    1  6.44064E-23 kpt; spin; max resid(k); each band:
  1.81E-23 6.44E-23
   0.4500  0.5000  0.5000    1  5.70293E-23 kpt; spin; max resid(k); each band:
  5.70E-23 2.35E-23
   0.0500  0.5000  0.5000    2  5.05819E-23 kpt; spin; max resid(k); each band:
  5.06E-23
   0.1500  0.5000  0.5000    2  7.65505E-23 kpt; spin; max resid(k); each band:
  7.66E-23
   0.2500  0.5000  0.5000    2  9.70068E-23 kpt; spin; max resid(k); each band:
  9.70E-23
   0.3500  0.5000  0.5000    2  5.10558E-23 kpt; spin; max resid(k); each band:
  5.11E-23
   0.4500  0.5000  0.5000    2  1.49265E-23 kpt; spin; max resid(k); each band:
  1.49E-23
 loper3 : ek2=    9.4748202250E+00
          f-sum rule ratio=    2.6152187116E+00 (note : ecutsm/=0)
 prteigrs : about to open file t67_1WF1_EIG
 Expectation of eigenvalue derivatives (hartree) for nkpt=   5  k points, SPIN UP:
  (in case of degenerate eigenvalues, averaged derivative)
 kpt#   1, nband=  2, wtk=  0.20000, kpt=  0.0500  0.5000  0.5000 (reduced coord)
   0.00000  -0.00000
 kpt#   2, nband=  2, wtk=  0.20000, kpt=  0.1500  0.5000  0.5000 (reduced coord)
   0.00000   0.00000
 kpt#   3, nband=  2, wtk=  0.20000, kpt=  0.2500  0.5000  0.5000 (reduced coord)
   0.00000   0.00000
 kpt#   4, nband=  2, wtk=  0.20000, kpt=  0.3500  0.5000  0.5000 (reduced coord)
   0.00000  -0.00000
 kpt#   5, nband=  2, wtk=  0.20000, kpt=  0.4500  0.5000  0.5000 (reduced coord)
   0.00000  -0.00000
 Expectation of eigenvalue derivatives (hartree) for nkpt=   5  k points, SPIN DOWN:
  (in case of degenerate eigenvalues, averaged derivative)
 kpt#   1, nband=  1, wtk=  0.20000, kpt=  0.0500  0.5000  0.5000 (reduced coord)
   0.00000
 kpt#   2, nband=  1, wtk=  0.20000, kpt=  0.1500  0.5000  0.5000 (reduced coord)
   0.00000
 kpt#   3, nband=  1, wtk=  0.20000, kpt=  0.2500  0.5000  0.5000 (reduced coord)
   0.00000
 kpt#   4, nband=  1, wtk=  0.20000, kpt=  0.3500  0.5000  0.5000 (reduced coord)
   0.00000
 kpt#   5, nband=  1, wtk=  0.20000, kpt=  0.4500  0.5000  0.5000 (reduced coord)
   0.00000

 Eight components of 2nd-order total energy (hartree) are
 1,2,3: 0th-order hamiltonian combined with 1st-order wavefunctions
     kin0=   1.21278468E+01 eigvalue=   3.04877501E+00  local=  -2.78725826E+00
 4,5,6: 1st-order hamiltonian combined with 1st and 0th-order wfs
     kin1=  -2.47787271E+01  Hartree=   0.00000000E+00     xc=   0.00000000E+00
 7,8,9: eventually, occupation + non-local contributions
    edocc=   0.00000000E+00     enl0=   0.00000000E+00   enl1=  -7.10542736E-16
 1-9 gives the relaxation energy (to be shifted if some occ is /=2.0)
   erelax=  -1.23893636E+01
  No Ewald or frozen-wf contrib.: the relaxation energy is the total one
 2DEtotal=   -0.1238936357E+02 Ha. Also 2DEtotal=   -0.337131727911E+03 eV
    (  non-var. 2DEtotal :   -1.2389363571E+01 Ha)

--------------------------------------------------------------------------------
 Perturbation wavevector (in red.coord.)   0.000000  0.000000  0.000000
 Perturbation : derivative vs k along direction   3
 The set of symmetries contains only one element for this perturbation.
 symkpt : not enough symmetry to change the number of k points.

--------------------------------------------------------------------------------

-inwffil : will read wavefunctions from disk file t67o_DS12_WFK
P newkpt: treating      2 bands with npw=     768 for ikpt=   1 by node    0
P newkpt: treating      2 bands with npw=     784 for ikpt=   2 by node    0
P newkpt: treating      2 bands with npw=     784 for ikpt=   3 by node    0
P newkpt: treating      2 bands with npw=     796 for ikpt=   4 by node    0
P newkpt: treating      2 bands with npw=     784 for ikpt=   5 by node    0
P newkpt: treating      1 bands with npw=     768 for ikpt=   1 by node    0
P newkpt: treating      1 bands with npw=     784 for ikpt=   2 by node    0
P newkpt: treating      1 bands with npw=     784 for ikpt=   3 by node    0
P newkpt: treating      1 bands with npw=     796 for ikpt=   4 by node    0
P newkpt: treating      1 bands with npw=     784 for ikpt=   5 by node    0

--------------------------------------------------------------------------------

-inwffil : will read wavefunctions from disk file t67o_DS12_WFK
P newkpt: treating      2 bands with npw=     768 for ikpt=   1 by node    0
P newkpt: treating      2 bands with npw=     784 for ikpt=   2 by node    0
P newkpt: treating      2 bands with npw=     784 for ikpt=   3 by node    0
P newkpt: treating      2 bands with npw=     796 for ikpt=   4 by node    0
P newkpt: treating      2 bands with npw=     784 for ikpt=   5 by node    0
P newkpt: treating      1 bands with npw=     768 for ikpt=   1 by node    0
P newkpt: treating      1 bands with npw=     784 for ikpt=   2 by node    0
P newkpt: treating      1 bands with npw=     784 for ikpt=   3 by node    0
P newkpt: treating      1 bands with npw=     796 for ikpt=   4 by node    0
P newkpt: treating      1 bands with npw=     784 for ikpt=   5 by node    0

 Initialisation of the first-order wave-functions :
  ireadwf=   0
P newkpt: treating      2 bands with npw=     768 for ikpt=   1 by node    0
P newkpt: treating      2 bands with npw=     784 for ikpt=   2 by node    0
P newkpt: treating      2 bands with npw=     784 for ikpt=   3 by node    0
P newkpt: treating      2 bands with npw=     796 for ikpt=   4 by node    0
P newkpt: treating      2 bands with npw=     784 for ikpt=   5 by node    0
P newkpt: treating      1 bands with npw=     768 for ikpt=   1 by node    0
P newkpt: treating      1 bands with npw=     784 for ikpt=   2 by node    0
P newkpt: treating      1 bands with npw=     784 for ikpt=   3 by node    0
P newkpt: treating      1 bands with npw=     796 for ikpt=   4 by node    0
P newkpt: treating      1 bands with npw=     784 for ikpt=   5 by node    0


     iter   2DEtotal(Ha)        deltaE(Ha) residm    vres2
-ETOT  1  -12.388124640653     -1.239E+01 9.091E-02 0.000E+00
 ETOT  2  -12.389363199136     -1.239E-03 5.386E-05 0.000E+00
 ETOT  3  -12.389363567345     -3.682E-07 1.169E-08 0.000E+00
 ETOT  4  -12.389363567550     -2.048E-10 7.270E-12 0.000E+00
 ETOT  5  -12.389363567550     -1.279E-13 4.414E-15 0.000E+00
 ETOT  6  -12.389363567550     -8.882E-15 3.219E-18 0.000E+00
 ETOT  7  -12.389363567550      1.066E-14 2.421E-21 0.000E+00
 ETOT  8  -12.389363567550     -1.421E-14 9.700E-23 0.000E+00

 At SCF step    8   max residual=  9.70E-23 < tolwfr=  1.00E-22 =>converged.
================================================================================

 ----iterations are completed or convergence reached----

 Mean square residual over all n,k,spin=   4.4029E-23; max=  9.6999E-23
   0.0500  0.5000  0.5000    1  7.55888E-23 kpt; spin; max resid(k); each band:
  7.56E-23 2.20E-23
   0.1500  0.5000  0.5000    1  2.24951E-23 kpt; spin; max resid(k); each band:
  2.25E-23 2.00E-23
   0.2500  0.5000  0.5000    1  3.48940E-23 kpt; spin; max resid(k); each band:
  3.22E-23 3.49E-23
   0.3500  0.5000  0.5000    1  6.44126E-23 kpt; spin; max resid(k); each band:
  1.81E-23 6.44E-23
   0.4500  0.5000  0.5000    1  5.70275E-23 kpt; spin; max resid(k); each band:
  5.70E-23 2.35E-23
   0.0500  0.5000  0.5000    2  5.05817E-23 kpt; spin; max resid(k); each band:
  5.06E-23
   0.1500  0.5000  0.5000    2  7.65498E-23 kpt; spin; max resid(k); each band:
  7.65E-23
   0.2500  0.5000  0.5000    2  9.69993E-23 kpt; spin; max resid(k); each band:
  9.70E-23
   0.3500  0.5000  0.5000    2  5.10542E-23 kpt; spin; max resid(k); each band:
  5.11E-23
   0.4500  0.5000  0.5000    2  1.49275E-23 kpt; spin; max resid(k); each band:
  1.49E-23
 loper3 : ek2=    9.4748202250E+00
          f-sum rule ratio=    2.6152187109E+00 (note : ecutsm/=0)
 prteigrs : about to open file t67_1WF1_EIG
 Expectation of eigenvalue derivatives (hartree) for nkpt=   5  k points, SPIN UP:
  (in case of degenerate eigenvalues, averaged derivative)
 kpt#   1, nband=  2, wtk=  0.20000, kpt=  0.0500  0.5000  0.5000 (reduced coord)
   0.00000  -0.00000
 kpt#   2, nband=  2, wtk=  0.20000, kpt=  0.1500  0.5000  0.5000 (reduced coord)
   0.00000  -0.00000
 kpt#   3, nband=  2, wtk=  0.20000, kpt=  0.2500  0.5000  0.5000 (reduced coord)
   0.00000  -0.00000
 kpt#   4, nband=  2, wtk=  0.20000, kpt=  0.3500  0.5000  0.5000 (reduced coord)
   0.00000  -0.00000
 kpt#   5, nband=  2, wtk=  0.20000, kpt=  0.4500  0.5000  0.5000 (reduced coord)
   0.00000  -0.00000
 Expectation of eigenvalue derivatives (hartree) for nkpt=   5  k points, SPIN DOWN:
  (in case of degenerate eigenvalues, averaged derivative)
 kpt#   1, nband=  1, wtk=  0.20000, kpt=  0.0500  0.5000  0.5000 (reduced coord)
   0.00000
 kpt#   2, nband=  1, wtk=  0.20000, kpt=  0.1500  0.5000  0.5000 (reduced coord)
   0.00000
 kpt#   3, nband=  1, wtk=  0.20000, kpt=  0.2500  0.5000  0.5000 (reduced coord)
   0.00000
 kpt#   4, nband=  1, wtk=  0.20000, kpt=  0.3500  0.5000  0.5000 (reduced coord)
   0.00000
 kpt#   5, nband=  1, wtk=  0.20000, kpt=  0.4500  0.5000  0.5000 (reduced coord)
   0.00000

 Eight components of 2nd-order total energy (hartree) are
 1,2,3: 0th-order hamiltonian combined with 1st-order wavefunctions
     kin0=   1.21278468E+01 eigvalue=   3.04877501E+00  local=  -2.78725826E+00
 4,5,6: 1st-order hamiltonian combined with 1st and 0th-order wfs
     kin1=  -2.47787271E+01  Hartree=   0.00000000E+00     xc=   0.00000000E+00
 7,8,9: eventually, occupation + non-local contributions
    edocc=   0.00000000E+00     enl0=   0.00000000E+00   enl1=   1.33226763E-15
 1-9 gives the relaxation energy (to be shifted if some occ is /=2.0)
   erelax=  -1.23893636E+01
  No Ewald or frozen-wf contrib.: the relaxation energy is the total one
 2DEtotal=   -0.1238936357E+02 Ha. Also 2DEtotal=   -0.337131727818E+03 eV
    (  non-var. 2DEtotal :   -1.2389363568E+01 Ha)
================================================================================

 ---- first-order wavefunction calculations are completed ----


 Total localisation tensor (bohr^2) in cartesian coordinates
  WARNING : still subject to testing - especially symmetries.
      direction              matrix element
   alpha     beta       real part   imaginary part
     1        1       0.7243036336    0.0000000000
     1        2       0.0000000000    0.0000000000
     1        3       0.0000000000    0.0000000000
     2        1       0.0000000000    0.0000000000
     2        2       0.4741309891    0.0000000000
     2        3       0.0000000000    0.0000000000
     3        1       0.0000000000    0.0000000000
     3        2       0.0000000000    0.0000000000
     3        3       0.4741309891    0.0000000000

 respfn : d/dk was computed, but no 2DTE, so no DDB output.

================================================================================
== DATASET 14 ==================================================================
-   nproc =    1

 mkfilename : getwfk/=0, take file _WFK from output of DATASET  12.

 mkfilename : getddk/=0, take file _1WF from output of DATASET  13.

 Exchange-correlation functional for the present dataset will be:
  LDA: Perdew-Wang 92 LSD fit to Ceperley-Alder data - ixc=7
 Citation for XC functional:
  J.P.Perdew and Y.Wang, PRB 45, 13244 (1992)

 Real(R)+Recip(G) space primitive vectors, cartesian coordinates (Bohr,Bohr^-1):
 R(1)=  8.0000000  0.0000000  0.0000000  G(1)=  0.1250000  0.0000000  0.0000000
 R(2)=  0.0000000  5.0000000  0.0000000  G(2)=  0.0000000  0.2000000  0.0000000
 R(3)=  0.0000000  0.0000000  5.0000000  G(3)=  0.0000000  0.0000000  0.2000000
 Unit cell volume ucvol=  2.0000000E+02 bohr^3
 Angles (23,13,12)=  9.00000000E+01  9.00000000E+01  9.00000000E+01 degrees

 getcut: wavevector=  0.0000  0.0000  0.0000  ngfft=  32  20  20
         ecut(hartree)=     18.743   => boxcut(ratio)=   2.05249
--------------------------------------------------------------------------------

-inwffil : will read wavefunctions from disk file t67o_DS12_WFK
P newkpt: treating      2 bands with npw=     768 for ikpt=   1 by node    0
P newkpt: treating      2 bands with npw=     784 for ikpt=   2 by node    0
P newkpt: treating      2 bands with npw=     784 for ikpt=   3 by node    0
P newkpt: treating      2 bands with npw=     796 for ikpt=   4 by node    0
P newkpt: treating      2 bands with npw=     784 for ikpt=   5 by node    0
P newkpt: treating      1 bands with npw=     768 for ikpt=   1 by node    0
P newkpt: treating      1 bands with npw=     784 for ikpt=   2 by node    0
P newkpt: treating      1 bands with npw=     784 for ikpt=   3 by node    0
P newkpt: treating      1 bands with npw=     796 for ikpt=   4 by node    0
P newkpt: treating      1 bands with npw=     784 for ikpt=   5 by node    0


 ==>  initialize data related to q vector <== 

 The list of irreducible perturbations for this q vector is:
    1)    idir= 1    ipert=   1
    2)    idir= 2    ipert=   1
    3)    idir= 3    ipert=   1
    4)    idir= 1    ipert=   2
    5)    idir= 2    ipert=   2
    6)    idir= 3    ipert=   2
    7)    idir= 1    ipert=   4
    8)    idir= 2    ipert=   4
    9)    idir= 3    ipert=   4

================================================================================

--------------------------------------------------------------------------------
 Perturbation wavevector (in red.coord.)   0.000000  0.000000  0.000000
 Perturbation : displacement of atom   1   along direction   1
 symkpt : not enough symmetry to change the number of k points.

--------------------------------------------------------------------------------

-inwffil : will read wavefunctions from disk file t67o_DS12_WFK
P newkpt: treating      2 bands with npw=     768 for ikpt=   1 by node    0
P newkpt: treating      2 bands with npw=     784 for ikpt=   2 by node    0
P newkpt: treating      2 bands with npw=     784 for ikpt=   3 by node    0
P newkpt: treating      2 bands with npw=     796 for ikpt=   4 by node    0
P newkpt: treating      2 bands with npw=     784 for ikpt=   5 by node    0
P newkpt: treating      1 bands with npw=     768 for ikpt=   1 by node    0
P newkpt: treating      1 bands with npw=     784 for ikpt=   2 by node    0
P newkpt: treating      1 bands with npw=     784 for ikpt=   3 by node    0
P newkpt: treating      1 bands with npw=     796 for ikpt=   4 by node    0
P newkpt: treating      1 bands with npw=     784 for ikpt=   5 by node    0

--------------------------------------------------------------------------------

-inwffil : will read wavefunctions from disk file t67o_DS12_WFK
P newkpt: treating      2 bands with npw=     768 for ikpt=   1 by node    0
P newkpt: treating      2 bands with npw=     784 for ikpt=   2 by node    0
P newkpt: treating      2 bands with npw=     784 for ikpt=   3 by node    0
P newkpt: treating      2 bands with npw=     796 for ikpt=   4 by node    0
P newkpt: treating      2 bands with npw=     784 for ikpt=   5 by node    0
P newkpt: treating      1 bands with npw=     768 for ikpt=   1 by node    0
P newkpt: treating      1 bands with npw=     784 for ikpt=   2 by node    0
P newkpt: treating      1 bands with npw=     784 for ikpt=   3 by node    0
P newkpt: treating      1 bands with npw=     796 for ikpt=   4 by node    0
P newkpt: treating      1 bands with npw=     784 for ikpt=   5 by node    0

 Initialisation of the first-order wave-functions :
  ireadwf=   0
P newkpt: treating      2 bands with npw=     768 for ikpt=   1 by node    0
P newkpt: treating      2 bands with npw=     784 for ikpt=   2 by node    0
P newkpt: treating      2 bands with npw=     784 for ikpt=   3 by node    0
P newkpt: treating      2 bands with npw=     796 for ikpt=   4 by node    0
P newkpt: treating      2 bands with npw=     784 for ikpt=   5 by node    0
P newkpt: treating      1 bands with npw=     768 for ikpt=   1 by node    0
P newkpt: treating      1 bands with npw=     784 for ikpt=   2 by node    0
P newkpt: treating      1 bands with npw=     784 for ikpt=   3 by node    0
P newkpt: treating      1 bands with npw=     796 for ikpt=   4 by node    0
P newkpt: treating      1 bands with npw=     784 for ikpt=   5 by node    0


     iter   2DEtotal(Ha)        deltaE(Ha) residm    vres2
-ETOT  1   38.576955202525     -4.849E+02 2.051E+00 6.644E+04
 ETOT  2   24.068073178965     -1.451E+01 2.106E-01 1.738E+04
 ETOT  3   19.477108334978     -4.591E+00 1.820E-01 8.257E+02
 ETOT  4   19.283085318032     -1.940E-01 1.532E-02 3.723E+02
 ETOT  5   19.115186423270     -1.679E-01 1.705E-03 4.950E+00
 ETOT  6   19.114144358358     -1.042E-03 8.778E-05 8.631E-01
 ETOT  7   19.113880359203     -2.640E-04 1.680E-06 5.726E-02
 ETOT  8   19.113864437646     -1.592E-05 7.293E-08 1.089E-03
 ETOT  9   19.113864156651     -2.810E-07 4.570E-09 3.409E-05
 ETOT 10   19.113864127440     -2.921E-08 3.314E-10 4.802E-07
 ETOT 11   19.113864127231     -2.090E-10 6.382E-12 5.880E-08
 ETOT 12   19.113864127213     -1.768E-11 2.881E-13 9.711E-10
 ETOT 13   19.113864127213     -2.842E-13 4.582E-16 2.785E-10
 ETOT 14   19.113864127194     -1.887E-11 5.822E-16 4.718E-12
 ETOT 15   19.113864127197      3.126E-12 2.549E-17 1.327E-13
 ETOT 16   19.113864127198      4.547E-13 6.098E-19 8.869E-15
 ETOT 17   19.113864127196     -1.705E-12 3.478E-20 2.196E-15
 ETOT 18   19.113864127198      2.103E-12 1.342E-20 1.028E-16
 ETOT 19   19.113864127191     -7.390E-12 8.369E-22 3.298E-17
 ETOT 20   19.113864127189     -1.762E-12 7.263E-23 5.847E-18
 ETOT 21   19.113864127187     -2.160E-12 3.489E-23 1.087E-18
 ETOT 22   19.113864127187      3.411E-13 2.411E-24 2.645E-19
 ETOT 23   19.113864127187      0.000E+00 1.806E-25 8.620E-20
 ETOT 24   19.113864127188      8.527E-13 1.275E-24 2.674E-20
 ETOT 25   19.113864127188     -3.979E-13 3.967E-25 1.966E-20
 ETOT 26   19.113864127188      8.527E-13 1.191E-25 4.779E-22
 ETOT 27   19.113864127189      9.095E-13 3.666E-27 3.787E-23

 At SCF step   27       vres2   =  3.79E-23 < tolvrs=  1.00E-22 =>converged.
-open ddk wf file :t67o_DS13_1WF7
-open ddk wf file :t67o_DS13_1WF8
-open ddk wf file :t67o_DS13_1WF9
================================================================================

 ----iterations are completed or convergence reached----

 Mean square residual over all n,k,spin=   1.2613E-27; max=  3.6659E-27
   0.0500  0.5000  0.5000    1  6.65329E-28 kpt; spin; max resid(k); each band:
  6.65E-28 1.25E-28
   0.1500  0.5000  0.5000    1  6.94410E-28 kpt; spin; max resid(k); each band:
  6.94E-28 1.27E-28
   0.2500  0.5000  0.5000    1  7.61230E-28 kpt; spin; max resid(k); each band:
  7.61E-28 1.31E-28
   0.3500  0.5000  0.5000    1  7.93331E-28 kpt; spin; max resid(k); each band:
  7.93E-28 1.37E-28
   0.4500  0.5000  0.5000    1  8.24056E-28 kpt; spin; max resid(k); each band:
  8.24E-28 1.39E-28
   0.0500  0.5000  0.5000    2  2.58474E-27 kpt; spin; max resid(k); each band:
  2.58E-27
   0.1500  0.5000  0.5000    2  2.46063E-27 kpt; spin; max resid(k); each band:
  2.46E-27
   0.2500  0.5000  0.5000    2  2.51754E-27 kpt; spin; max resid(k); each band:
  2.52E-27
   0.3500  0.5000  0.5000    2  3.29369E-27 kpt; spin; max resid(k); each band:
  3.29E-27
[...]
            fcart21   -4.7809459392E-02 -1.7776286474E-12 -4.7946133090E-12
                       4.7809459392E-02  1.7776286474E-12  4.7946133090E-12
            fcart23    0.0000000000E+00  0.0000000000E+00  0.0000000000E+00
                       0.0000000000E+00  0.0000000000E+00  0.0000000000E+00
            fcart24    0.0000000000E+00  0.0000000000E+00  0.0000000000E+00
                       0.0000000000E+00  0.0000000000E+00  0.0000000000E+00
            fcart25    0.0000000000E+00  0.0000000000E+00  0.0000000000E+00
                       0.0000000000E+00  0.0000000000E+00  0.0000000000E+00
-          fftalg         112
           getddk11         0
           getddk12         0
           getddk13         0
           getddk14        -1
           getddk15         0
           getddk21         0
           getddk22         0
           getddk23         0
           getddk24        -1
           getddk25         0
           getden11         0
           getden12        -1
           getden13         0
           getden14         0
           getden15        -4
           getden21         0
           getden22        -1
           getden23         0
           getden24         0
           getden25        -4
           getwfk11         0
           getwfk12        -1
           getwfk13        -1
           getwfk14        -2
           getwfk15        -3
           getwfk21         0
           getwfk22        -1
           getwfk23        -1
           getwfk24        -2
           getwfk25        -3
          get1den11         0
          get1den12         0
          get1den13         0
          get1den14         0
          get1den15        -1
          get1den21         0
          get1den22         0
          get1den23         0
          get1den24         0
          get1den25        -1
           get1wf11         0
           get1wf12         0
           get1wf13         0
           get1wf14         0
           get1wf15        -1
           get1wf21         0
           get1wf22         0
           get1wf23         0
           get1wf24         0
           get1wf25        -1
             iscf11         7
             iscf12        -2
             iscf13         7
             iscf14         7
             iscf15         7
             iscf21         7
             iscf22        -2
             iscf23         7
             iscf24         7
             iscf25         7
              ixc           7
           jdtset       11   12   13   14   15   21   22   23   24   25
              kpt      5.00000000E-02  5.00000000E-01  5.00000000E-01
                       1.50000000E-01  5.00000000E-01  5.00000000E-01
                       2.50000000E-01  5.00000000E-01  5.00000000E-01
                       3.50000000E-01  5.00000000E-01  5.00000000E-01
                       4.50000000E-01  5.00000000E-01  5.00000000E-01
           kptopt11         1
           kptopt12         2
           kptopt13         2
           kptopt14         2
           kptopt15         2
           kptopt21         1
           kptopt22         2
           kptopt23         2
           kptopt24         2
           kptopt25         2
         kptrlatt       10    0    0      0    1    0      0    0    1
          kptrlen      5.00000000E+00
P           mkmem           5
P          mkqmem           5
P          mk1mem           5
            natom           2
            nband           2       2       2       2       2       1       1       1
                            1       1
           ndtset          10
            ngfft          32      20      20
             nkpt           5
           nspden           2
           nsppol           2
            nstep         100
             nsym           1
            ntime         100
           ntypat           1
              occ      1.000000  1.000000
                       1.000000  1.000000
                       1.000000  1.000000
                       1.000000  1.000000
                       1.000000  1.000000
                       1.000000
                       1.000000
                       1.000000
                       1.000000
                       1.000000
           occopt           2
        optdriver11         0
        optdriver12         0
        optdriver13         1
        optdriver14         1
        optdriver15         5
        optdriver21         0
        optdriver22         0
        optdriver23         1
        optdriver24         1
        optdriver25         5
          prepanl11         0
          prepanl12         0
          prepanl13         0
          prepanl14         1
          prepanl15         0
          prepanl21         0
          prepanl22         0
          prepanl23         0
          prepanl24         1
          prepanl25         0
          rfatpol11         1       1
          rfatpol12         1       1
          rfatpol13         1       1
          rfatpol14         1       2
          rfatpol15         1       1
          rfatpol21         1       1
          rfatpol22         1       1
          rfatpol23         1       1
          rfatpol24         1       2
          rfatpol25         1       1
            rfdir11         0       0       0
            rfdir12         0       0       0
            rfdir13         1       1       1
            rfdir14         1       1       1
            rfdir15         0       0       0
            rfdir21         0       0       0
            rfdir22         0       0       0
            rfdir23         1       1       1
            rfdir24         1       1       1
            rfdir25         0       0       0
           rfelfd11         0
           rfelfd12         0
           rfelfd13         2
           rfelfd14         3
           rfelfd15         0
           rfelfd21         0
           rfelfd22         0
           rfelfd23         2
           rfelfd24         3
           rfelfd25         0
           rfphon11         0
           rfphon12         0
           rfphon13         0
           rfphon14         1
           rfphon15         0
           rfphon21         0
           rfphon22         0
           rfphon23         0
           rfphon24         1
           rfphon25         0
           rf1dir11         0       0       0
           rf1dir12         0       0       0
           rf1dir13         0       0       0
           rf1dir14         0       0       0
           rf1dir15         1       0       0
           rf1dir21         0       0       0
           rf1dir22         0       0       0
           rf1dir23         0       0       0
           rf1dir24         0       0       0
           rf1dir25         1       0       0
          rf1elfd11         0
          rf1elfd12         0
          rf1elfd13         0
          rf1elfd14         0
          rf1elfd15         1
          rf1elfd21         0
          rf1elfd22         0
          rf1elfd23         0
          rf1elfd24         0
          rf1elfd25         1
          rf1phon11         0
          rf1phon12         0
          rf1phon13         0
          rf1phon14         0
          rf1phon15         1
          rf1phon21         0
          rf1phon22         0
          rf1phon23         0
          rf1phon24         0
          rf1phon25         1
           rf2dir11         0       0       0
           rf2dir12         0       0       0
           rf2dir13         0       0       0
           rf2dir14         0       0       0
           rf2dir15         1       0       0
           rf2dir21         0       0       0
           rf2dir22         0       0       0
           rf2dir23         0       0       0
           rf2dir24         0       0       0
           rf2dir25         1       0       0
          rf2elfd11         0
          rf2elfd12         0
          rf2elfd13         0
          rf2elfd14         0
          rf2elfd15         1
          rf2elfd21         0
          rf2elfd22         0
          rf2elfd23         0
          rf2elfd24         0
          rf2elfd25         1
           rf3dir11         0       0       0
           rf3dir12         0       0       0
           rf3dir13         0       0       0
           rf3dir14         0       0       0
           rf3dir15         1       0       0
           rf3dir21         0       0       0
           rf3dir22         0       0       0
           rf3dir23         0       0       0
           rf3dir24         0       0       0
           rf3dir25         1       0       0
          rf3elfd11         0
          rf3elfd12         0
          rf3elfd13         0
          rf3elfd14         0
          rf3elfd15         1
          rf3elfd21         0
          rf3elfd22         0
          rf3elfd23         0
          rf3elfd24         0
          rf3elfd25         1
           shiftk      5.00000000E-01  5.00000000E-01  5.00000000E-01
          spgroup           1
           strten11    3.2373217290E-04 -1.6991548589E-04 -1.6991548784E-04
                       9.9838027706E-15  1.8208757560E-15  0.0000000000E+00
           strten13    0.0000000000E+00  0.0000000000E+00  0.0000000000E+00
                       0.0000000000E+00  0.0000000000E+00  0.0000000000E+00
           strten14    0.0000000000E+00  0.0000000000E+00  0.0000000000E+00
                       0.0000000000E+00  0.0000000000E+00  0.0000000000E+00
           strten15    0.0000000000E+00  0.0000000000E+00  0.0000000000E+00
                       0.0000000000E+00  0.0000000000E+00  0.0000000000E+00
           strten21    2.9788705258E-04 -1.7002262998E-04 -1.7002263192E-04
                       9.4063635675E-15  1.6328780603E-15  0.0000000000E+00
           strten23    0.0000000000E+00  0.0000000000E+00  0.0000000000E+00
                       0.0000000000E+00  0.0000000000E+00  0.0000000000E+00
           strten24    0.0000000000E+00  0.0000000000E+00  0.0000000000E+00
                       0.0000000000E+00  0.0000000000E+00  0.0000000000E+00
           strten25    0.0000000000E+00  0.0000000000E+00  0.0000000000E+00
                       0.0000000000E+00  0.0000000000E+00  0.0000000000E+00
           toldfe11    1.00000000E-12 Hartree
           toldfe12    0.00000000E+00 Hartree
           toldfe13    0.00000000E+00 Hartree
           toldfe14    0.00000000E+00 Hartree
           toldfe15    0.00000000E+00 Hartree
           toldfe21    1.00000000E-12 Hartree
           toldfe22    0.00000000E+00 Hartree
           toldfe23    0.00000000E+00 Hartree
           toldfe24    0.00000000E+00 Hartree
           toldfe25    0.00000000E+00 Hartree
           tolvrs11    0.00000000E+00
           tolvrs12    0.00000000E+00
           tolvrs13    0.00000000E+00
           tolvrs14    1.00000000E-22
           tolvrs15    0.00000000E+00
           tolvrs21    0.00000000E+00
           tolvrs22    0.00000000E+00
           tolvrs23    0.00000000E+00
           tolvrs24    1.00000000E-22
           tolvrs25    0.00000000E+00
           tolwfr11    0.00000000E+00
           tolwfr12    1.00000000E-22
           tolwfr13    1.00000000E-22
           tolwfr14    0.00000000E+00
           tolwfr15    0.00000000E+00
           tolwfr21    0.00000000E+00
           tolwfr22    1.00000000E-22
           tolwfr23    1.00000000E-22
           tolwfr24    0.00000000E+00
           tolwfr25    0.00000000E+00
            typat      1  1
              wtk        0.20000    0.20000    0.20000    0.20000    0.20000
           xangst11   -5.2917720859E-01  0.0000000000E+00  0.0000000000E+00
                       5.2917720859E-01  0.0000000000E+00  0.0000000000E+00
           xangst12   -5.2917720859E-01  0.0000000000E+00  0.0000000000E+00
                       5.2917720859E-01  0.0000000000E+00  0.0000000000E+00
           xangst13   -5.2917720859E-01  0.0000000000E+00  0.0000000000E+00
                       5.2917720859E-01  0.0000000000E+00  0.0000000000E+00
           xangst14   -5.2917720859E-01  0.0000000000E+00  0.0000000000E+00
                       5.2917720859E-01  0.0000000000E+00  0.0000000000E+00
           xangst15   -5.2917720859E-01  0.0000000000E+00  0.0000000000E+00
                       5.2917720859E-01  0.0000000000E+00  0.0000000000E+00
           xangst21   -5.2388543650E-01  0.0000000000E+00  0.0000000000E+00
                       5.2917720859E-01  0.0000000000E+00  0.0000000000E+00
           xangst22   -5.2388543650E-01  0.0000000000E+00  0.0000000000E+00
                       5.2917720859E-01  0.0000000000E+00  0.0000000000E+00
           xangst23   -5.2388543650E-01  0.0000000000E+00  0.0000000000E+00
                       5.2917720859E-01  0.0000000000E+00  0.0000000000E+00
           xangst24   -5.2388543650E-01  0.0000000000E+00  0.0000000000E+00
                       5.2917720859E-01  0.0000000000E+00  0.0000000000E+00
           xangst25   -5.2388543650E-01  0.0000000000E+00  0.0000000000E+00
                       5.2917720859E-01  0.0000000000E+00  0.0000000000E+00
            xcart11   -1.0000000000E+00  0.0000000000E+00  0.0000000000E+00
                       1.0000000000E+00  0.0000000000E+00  0.0000000000E+00
            xcart12   -1.0000000000E+00  0.0000000000E+00  0.0000000000E+00
                       1.0000000000E+00  0.0000000000E+00  0.0000000000E+00
            xcart13   -1.0000000000E+00  0.0000000000E+00  0.0000000000E+00
                       1.0000000000E+00  0.0000000000E+00  0.0000000000E+00
            xcart14   -1.0000000000E+00  0.0000000000E+00  0.0000000000E+00
                       1.0000000000E+00  0.0000000000E+00  0.0000000000E+00
            xcart15   -1.0000000000E+00  0.0000000000E+00  0.0000000000E+00
                       1.0000000000E+00  0.0000000000E+00  0.0000000000E+00
            xcart21   -9.9000000000E-01  0.0000000000E+00  0.0000000000E+00
                       1.0000000000E+00  0.0000000000E+00  0.0000000000E+00
            xcart22   -9.9000000000E-01  0.0000000000E+00  0.0000000000E+00
                       1.0000000000E+00  0.0000000000E+00  0.0000000000E+00
            xcart23   -9.9000000000E-01  0.0000000000E+00  0.0000000000E+00
                       1.0000000000E+00  0.0000000000E+00  0.0000000000E+00
            xcart24   -9.9000000000E-01  0.0000000000E+00  0.0000000000E+00
                       1.0000000000E+00  0.0000000000E+00  0.0000000000E+00
            xcart25   -9.9000000000E-01  0.0000000000E+00  0.0000000000E+00
                       1.0000000000E+00  0.0000000000E+00  0.0000000000E+00
             xred11   -1.2500000000E-01  0.0000000000E+00  0.0000000000E+00
                       1.2500000000E-01  0.0000000000E+00  0.0000000000E+00
             xred12   -1.2500000000E-01  0.0000000000E+00  0.0000000000E+00
                       1.2500000000E-01  0.0000000000E+00  0.0000000000E+00
             xred13   -1.2500000000E-01  0.0000000000E+00  0.0000000000E+00
                       1.2500000000E-01  0.0000000000E+00  0.0000000000E+00
             xred14   -1.2500000000E-01  0.0000000000E+00  0.0000000000E+00
                       1.2500000000E-01  0.0000000000E+00  0.0000000000E+00
             xred15   -1.2500000000E-01  0.0000000000E+00  0.0000000000E+00
                       1.2500000000E-01  0.0000000000E+00  0.0000000000E+00
             xred21   -1.2375000000E-01  0.0000000000E+00  0.0000000000E+00
                       1.2500000000E-01  0.0000000000E+00  0.0000000000E+00
             xred22   -1.2375000000E-01  0.0000000000E+00  0.0000000000E+00
                       1.2500000000E-01  0.0000000000E+00  0.0000000000E+00
             xred23   -1.2375000000E-01  0.0000000000E+00  0.0000000000E+00
                       1.2500000000E-01  0.0000000000E+00  0.0000000000E+00
             xred24   -1.2375000000E-01  0.0000000000E+00  0.0000000000E+00
                       1.2500000000E-01  0.0000000000E+00  0.0000000000E+00
             xred25   -1.2375000000E-01  0.0000000000E+00  0.0000000000E+00
                       1.2500000000E-01  0.0000000000E+00  0.0000000000E+00
            znucl        2.00000

================================================================================


- Timing analysis has been suppressed with timopt=0



================================================================================

 Suggested references for the acknowledgment of ABINIT usage.

 The users of ABINIT have little formal obligations with respect to the ABINIT group
 (those specified in the GNU General Public License, http://www.gnu.org/copyleft/gpl.txt).
 However, it is common practice in the scientific literature,
 to acknowledge the efforts of people that have made the research possible.
 In this spirit, please find below suggested citations of work written by ABINIT developers,
 corresponding to implementations inside of ABINIT that you have used in the present run.
 Note also that it will be of great value to readers of publications presenting these results,
 to read papers enabling them to understand the theoretical formalism and details
 of the ABINIT implementation.
 For information on why they are suggested, see also http://www.abinit.org/about/?text=acknowledgments.

 [1] Nonlinear optical susceptibilities, Raman efficiencies, and electrooptic tensors
 from first principles density functional theory.
 M. Veithen, X. Gonze, and Ph. Ghosez, Phys. Rev. B 71, 125107 (2005).
 Comment : to be cited for non-linear response calculations, with optdriver=5.

 [2] First-principles responses of solids to atomic displacements and homogeneous electric fields:,
 implementation of a conjugate-gradient algorithm. X. Gonze, Phys. Rev. B55, 10337 (1997).
 Comment : Non-vanishing rfphon and/or rfelfd, in the norm-conserving case.

 [3] Dynamical matrices, Born effective charges, dielectric permittivity tensors, and ,
 interatomic force constants from density-functional perturbation theory,
 X. Gonze and C. Lee, Phys. Rev. B55, 10355 (1997).
 Comment : Non-vanishing rfphon and/or rfelfd, in the norm-conserving case.

 [4] ABINIT : First-principles approach of materials and nanosystem properties.
 X. Gonze, B. Amadon, P.-M. Anglade, J.-M. Beuken, F. Bottin, P. Boulanger, F. Bruneval,
 D. Caliste, R. Caracas, M. Cote, T. Deutsch, L. Genovese, Ph. Ghosez, M. Giantomassi
 S. Goedecker, D.R. Hamann, P. Hermet, F. Jollet, G. Jomard, S. Leroux, M. Mancini, S. Mazevet,
 M.J.T. Oliveira, G. Onida, Y. Pouillon, T. Rangel, G.-M. Rignanese, D. Sangalli, R. Shaltaf,
 M. Torrent, M.J. Verstraete, G. Zerah, J.W. Zwanziger
 Computer Phys. Comm. 180, 2582-2615 (2009).
 Comment : the third generic paper describing the ABINIT project.
 Note that a version of this paper, that is not formatted for Computer Phys. Comm. 
 is available at http://www.abinit.org/about/ABINIT_CPC_v10.pdf .
 The licence allows the authors to put it on the Web.

 [5] A brief introduction to the ABINIT software package.
 X. Gonze, G.-M. Rignanese, M. Verstraete, J.-M. Beuken, Y. Pouillon, R. Caracas, F. Jollet,
 M. Torrent, G. Zerah, M. Mikami, Ph. Ghosez, M. Veithen, J.-Y. Raty, V. Olevano, F. Bruneval,
 L. Reining, R. Godby, G. Onida, D.R. Hamann, and D.C. Allan.
 Z. Kristallogr. 220, 558-562 (2005).
 Comment : the second generic paper describing the ABINIT project. Note that this paper
 should be cited especially if you are using the GW part of ABINIT, as several authors
 of this part are not in the list of authors of the first or third paper.
 The .pdf of the latter paper is available at http://www.abinit.org/about/zfk_0505-06_558-562.pdf.
 Note that it should not redistributed (Copyright by Oldenburg Wissenshaftverlag,
 the licence allows the authors to put it on the Web).
-
- Proc.   0 individual time (sec): cpu=         18.9  wall=         22.1

================================================================================

 Calculation completed.
.Delivered  313 WARNINGs and  43 COMMENTs to log file.
+Overall time at end (sec) : cpu=         18.9  wall=         22.1
