
.Version 7.10.4 of ABINIT 
.(MPI version, prepared for a x86_64_linux_gnu4.7 computer) 

.Copyright (C) 1998-2014 ABINIT group . 
 ABINIT comes with ABSOLUTELY NO WARRANTY.
 It is free software, and you are welcome to redistribute it
 under certain conditions (GNU General Public License,
 see ~abinit/COPYING or http://www.gnu.org/copyleft/gpl.txt).

 ABINIT is a project of the Universite Catholique de Louvain,
 Corning Inc. and other collaborators, see ~abinit/doc/developers/contributors.txt .
 Please read ~abinit/doc/users/acknowledgments.html for suggested
 acknowledgments of the ABINIT effort.
 For more information, see http://www.abinit.org .

.Starting date : Wed 11 Mar 2015.
- ( at 10h30 )
  
- input  file    -> t72.in
- output file    -> t72.out
- root for input  files -> t72i
- root for output files -> t72o


 DATASET    1 : space group P-6 m 2 (#187); Bravais hP (primitive hexag.)
================================================================================
 Values of the parameters that define the memory need for DATASET  1.
   intxc =         0  ionmov =         0    iscf =         7 xclevel =         1
  lmnmax =         3   lnmax =         3   mband =         8  mffmem =         1
P  mgfft =        12   mkmem =         6 mpssoang=         3     mpw =        34
  mqgrid =      3001   natom =         2    nfft =       768    nkpt =         6
  nloalg =         4  nspden =         1 nspinor =         1  nsppol =         1
    nsym =        12  n1xccc =      2501  ntypat =         2  occopt =         7
================================================================================
P This job should need less than                       1.915 Mbytes of memory.
  Rough estimation (10% accuracy) of disk space for files :
_ WF disk file :      0.027 Mbytes ; DEN or POT disk file :      0.008 Mbytes.
================================================================================


 DATASET    2 : space group P-6 m 2 (#187); Bravais hP (primitive hexag.)
================================================================================
 Values of the parameters that define the memory need for DATASET  2 (RF).
   intxc =         0    iscf =         7 xclevel =         1  lmnmax =         3
   lnmax =         3   mband =         8  mffmem =         1   mgfft =        12
P  mkmem =        16  mkqmem =        16  mk1mem =        16 mpssoang=         3
     mpw =        35  mqgrid =      3001   natom =         2    nfft =       768
    nkpt =        16  nloalg =         4  nspden =         1 nspinor =         1
  nsppol =         1    nsym =        12  n1xccc =      2501  ntypat =         2
  occopt =         7
================================================================================
P This job should need less than                       2.056 Mbytes of memory.
  Rough estimation (10% accuracy) of disk space for files :
_ WF disk file :      0.070 Mbytes ; DEN or POT disk file :      0.008 Mbytes.
================================================================================


 DATASET    3 : space group P-6 m 2 (#187); Bravais hP (primitive hexag.)
================================================================================
 Values of the parameters that define the memory need for DATASET  3 (RF).
   intxc =         0    iscf =         7 xclevel =         1  lmnmax =         3
   lnmax =         3   mband =         8  mffmem =         1   mgfft =        12
P  mkmem =        16  mkqmem =        16  mk1mem =        16 mpssoang=         3
     mpw =        35  mqgrid =      3001   natom =         2    nfft =       768
    nkpt =        16  nloalg =         4  nspden =         1 nspinor =         1
  nsppol =         1    nsym =        12  n1xccc =      2501  ntypat =         2
  occopt =         7
================================================================================
P This job should need less than                       2.101 Mbytes of memory.
  Rough estimation (10% accuracy) of disk space for files :
_ WF disk file :      0.070 Mbytes ; DEN or POT disk file :      0.008 Mbytes.
================================================================================


 DATASET    4 : space group P-6 m 2 (#187); Bravais hP (primitive hexag.)
================================================================================
 Values of the parameters that define the memory need for DATASET  4 (RF).
   intxc =         0    iscf =         7 xclevel =         1  lmnmax =         3
   lnmax =         3   mband =         8  mffmem =         1   mgfft =        12
P  mkmem =        16  mkqmem =        16  mk1mem =        16 mpssoang=         3
     mpw =        35  mqgrid =      3001   natom =         2    nfft =       768
    nkpt =        16  nloalg =         4  nspden =         1 nspinor =         1
  nsppol =         1    nsym =        12  n1xccc =      2501  ntypat =         2
  occopt =         7
================================================================================
P This job should need less than                       2.101 Mbytes of memory.
  Rough estimation (10% accuracy) of disk space for files :
_ WF disk file :      0.070 Mbytes ; DEN or POT disk file :      0.008 Mbytes.
================================================================================


 DATASET    5 : space group P-6 m 2 (#187); Bravais hP (primitive hexag.)
================================================================================
 Values of the parameters that define the memory need for DATASET  5 (RF).
   intxc =         0    iscf =         7 xclevel =         1  lmnmax =         3
   lnmax =         3   mband =         8  mffmem =         1   mgfft =        12
P  mkmem =        16  mkqmem =        16  mk1mem =        16 mpssoang=         3
     mpw =        35  mqgrid =      3001   natom =         2    nfft =       768
    nkpt =        16  nloalg =         4  nspden =         1 nspinor =         1
  nsppol =         1    nsym =        12  n1xccc =      2501  ntypat =         2
  occopt =         7
================================================================================
P This job should need less than                       2.101 Mbytes of memory.
  Rough estimation (10% accuracy) of disk space for files :
_ WF disk file :      0.070 Mbytes ; DEN or POT disk file :      0.008 Mbytes.
================================================================================


 DATASET    6 : space group P-6 m 2 (#187); Bravais hP (primitive hexag.)
================================================================================
 Values of the parameters that define the memory need for DATASET  6 (RF).
   intxc =         0    iscf =        -3 xclevel =         1  lmnmax =         3
   lnmax =         3   mband =         8  mffmem =         1   mgfft =        12
P  mkmem =        16  mkqmem =        16  mk1mem =        16 mpssoang=         3
     mpw =        35  mqgrid =      3001   natom =         2    nfft =       768
    nkpt =        16  nloalg =         4  nspden =         1 nspinor =         1
  nsppol =         1    nsym =        12  n1xccc =      2501  ntypat =         2
  occopt =         7
================================================================================
P This job should need less than                       2.051 Mbytes of memory.
  Rough estimation (10% accuracy) of disk space for files :
_ WF disk file :      0.070 Mbytes ; DEN or POT disk file :      0.008 Mbytes.
================================================================================


 DATASET    7 : space group P-6 m 2 (#187); Bravais hP (primitive hexag.)
================================================================================
 Values of the parameters that define the memory need for DATASET  7.
   intxc =         0  ionmov =         0    iscf =         7 xclevel =         1
  lmnmax =         3   lnmax =         3   mband =         8  mffmem =         1
P  mgfft =        12   mkmem =        16 mpssoang=         3     mpw =        34
  mqgrid =      3001   natom =         2    nfft =       768    nkpt =        16
  nloalg =         4  nspden =         1 nspinor =         1  nsppol =         1
    nsym =        12  n1xccc =      2501  ntypat =         2  occopt =         7
================================================================================
P This job should need less than                       1.973 Mbytes of memory.
  Rough estimation (10% accuracy) of disk space for files :
_ WF disk file :      0.068 Mbytes ; DEN or POT disk file :      0.008 Mbytes.
================================================================================


 DATASET    8 : space group P-6 m 2 (#187); Bravais hP (primitive hexag.)
================================================================================
 Values of the parameters that define the memory need for DATASET  8 (RF).
   intxc =         0    iscf =        -2 xclevel =         1  lmnmax =         3
   lnmax =         3   mband =         8  mffmem =         1   mgfft =        12
P  mkmem =        16  mkqmem =        16  mk1mem =        16 mpssoang=         3
     mpw =        35  mqgrid =      3001   natom =         2    nfft =       768
    nkpt =        16  nloalg =         4  nspden =         1 nspinor =         1
  nsppol =         1    nsym =        12  n1xccc =      2501  ntypat =         2
  occopt =         7
================================================================================
P This job should need less than                       2.051 Mbytes of memory.
  Rough estimation (10% accuracy) of disk space for files :
_ WF disk file :      0.070 Mbytes ; DEN or POT disk file :      0.008 Mbytes.
================================================================================


 DATASET    9 : space group P-6 m 2 (#187); Bravais hP (primitive hexag.)
================================================================================
 Values of the parameters that define the memory need for DATASET  9 (RF).
   intxc =         0    iscf =        -2 xclevel =         1  lmnmax =         3
   lnmax =         3   mband =         8  mffmem =         1   mgfft =        12
P  mkmem =        16  mkqmem =        16  mk1mem =        16 mpssoang=         3
     mpw =        35  mqgrid =      3001   natom =         2    nfft =       768
    nkpt =        16  nloalg =         4  nspden =         1 nspinor =         1
  nsppol =         1    nsym =        12  n1xccc =      2501  ntypat =         2
  occopt =         7
================================================================================
P This job should need less than                       2.089 Mbytes of memory.
  Rough estimation (10% accuracy) of disk space for files :
_ WF disk file :      0.070 Mbytes ; DEN or POT disk file :      0.008 Mbytes.
================================================================================


 DATASET   10 : space group P-6 m 2 (#187); Bravais hP (primitive hexag.)
================================================================================
 Values of the parameters that define the memory need for DATASET 10 (RF).
   intxc =         0    iscf =        -2 xclevel =         1  lmnmax =         3
   lnmax =         3   mband =         8  mffmem =         1   mgfft =        12
P  mkmem =        16  mkqmem =        16  mk1mem =        16 mpssoang=         3
     mpw =        35  mqgrid =      3001   natom =         2    nfft =       768
    nkpt =        16  nloalg =         4  nspden =         1 nspinor =         1
  nsppol =         1    nsym =        12  n1xccc =      2501  ntypat =         2
  occopt =         7
================================================================================
P This job should need less than                       2.089 Mbytes of memory.
  Rough estimation (10% accuracy) of disk space for files :
_ WF disk file :      0.070 Mbytes ; DEN or POT disk file :      0.008 Mbytes.
================================================================================


 DATASET   11 : space group P-6 m 2 (#187); Bravais hP (primitive hexag.)
================================================================================
 Values of the parameters that define the memory need for DATASET 11 (RF).
   intxc =         0    iscf =        -2 xclevel =         1  lmnmax =         3
   lnmax =         3   mband =         8  mffmem =         1   mgfft =        12
P  mkmem =        16  mkqmem =        16  mk1mem =        16 mpssoang=         3
     mpw =        35  mqgrid =      3001   natom =         2    nfft =       768
    nkpt =        16  nloalg =         4  nspden =         1 nspinor =         1
  nsppol =         1    nsym =        12  n1xccc =      2501  ntypat =         2
  occopt =         7
================================================================================
P This job should need less than                       2.089 Mbytes of memory.
  Rough estimation (10% accuracy) of disk space for files :
_ WF disk file :      0.070 Mbytes ; DEN or POT disk file :      0.008 Mbytes.
================================================================================


 DATASET   12 : space group P-6 m 2 (#187); Bravais hP (primitive hexag.)
================================================================================
 Values of the parameters that define the memory need for DATASET 12 (RF).
   intxc =         0    iscf =        -3 xclevel =         1  lmnmax =         3
   lnmax =         3   mband =         8  mffmem =         1   mgfft =        12
P  mkmem =        16  mkqmem =        16  mk1mem =        16 mpssoang=         3
     mpw =        35  mqgrid =      3001   natom =         2    nfft =       768
    nkpt =        16  nloalg =         4  nspden =         1 nspinor =         1
  nsppol =         1    nsym =        12  n1xccc =      2501  ntypat =         2
  occopt =         7
================================================================================
P This job should need less than                       2.051 Mbytes of memory.
  Rough estimation (10% accuracy) of disk space for files :
_ WF disk file :      0.070 Mbytes ; DEN or POT disk file :      0.008 Mbytes.
================================================================================

--------------------------------------------------------------------------------
------------- Echo of variables that govern the present computation ------------
--------------------------------------------------------------------------------
-
- outvars: echo of selected default values                                      
-   accesswff0 =  0 , fftalg0 =112 , wfoptalg0 =  0
-
- outvars: echo of global parameters not present in the input file              
-  max_nthreads =    0
-
 -outvars: echo values of preprocessed input variables --------
            acell      5.5762038729E+00  5.5762038729E+00  8.8543117956E+00 Bohr
              amu      4.78800000E+01  9.29063800E+01
             ecut      2.00000000E+00 Hartree
-          fftalg         112
           getwfk1          0
           getwfk2          1
           getwfk3          1
           getwfk4          1
           getwfk5          1
           getwfk6          1
           getwfk7          1
           getwfk8          7
           getwfk9          7
           getwfk10         7
           getwfk11         7
           getwfk12         7
          get1den1          0
          get1den2          0
          get1den3          0
          get1den4          0
          get1den5          0
          get1den6          0
          get1den7          0
          get1den8          2
          get1den9          3
          get1den10         4
          get1den11         5
          get1den12         6
             iscf1          7
             iscf2          7
             iscf3          7
             iscf4          7
             iscf5          7
             iscf6         -3
             iscf7          7
             iscf8         -2
             iscf9         -2
             iscf10        -2
             iscf11        -2
             iscf12        -3
           istwfk1       2    3    0    0    4    5
           istwfk2       1    1    1    1    0    0    0    0    1    1
                         1    1    0    0    0    0
           istwfk3       1    1    1    1    0    0    0    0    1    1
                         1    1    0    0    0    0
           istwfk4       1    1    1    1    0    0    0    0    1    1
                         1    1    0    0    0    0
           istwfk5       1    1    1    1    0    0    0    0    1    1
                         1    1    0    0    0    0
           istwfk6       1    1    1    1    0    0    0    0    1    1
                         1    1    0    0    0    0
           istwfk7       2    3    6    7    0    0    0    0    4    5
                         8    9    0    0    0    0
           istwfk8       1    1    1    1    0    0    0    0    1    1
                         1    1    0    0    0    0
           istwfk9       1    1    1    1    0    0    0    0    1    1
                         1    1    0    0    0    0
           istwfk10      1    1    1    1    0    0    0    0    1    1
                         1    1    0    0    0    0
           istwfk11      1    1    1    1    0    0    0    0    1    1
                         1    1    0    0    0    0
           istwfk12      1    1    1    1    0    0    0    0    1    1
                         1    1    0    0    0    0
           jdtset        1    2    3    4    5    6    7    8    9   10
                        11   12
              kpt1     0.00000000E+00  0.00000000E+00  0.00000000E+00
                       5.00000000E-01  0.00000000E+00  0.00000000E+00
                       0.00000000E+00  0.00000000E+00  2.50000000E-01
                       5.00000000E-01  0.00000000E+00  2.50000000E-01
                       0.00000000E+00  0.00000000E+00  5.00000000E-01
                       5.00000000E-01  0.00000000E+00  5.00000000E-01
              kpt2     0.00000000E+00  0.00000000E+00  0.00000000E+00
                       5.00000000E-01  0.00000000E+00  0.00000000E+00
                       0.00000000E+00  5.00000000E-01  0.00000000E+00
                       5.00000000E-01  5.00000000E-01  0.00000000E+00
                       0.00000000E+00  0.00000000E+00  2.50000000E-01
                       5.00000000E-01  0.00000000E+00  2.50000000E-01
                       0.00000000E+00  5.00000000E-01  2.50000000E-01
                       5.00000000E-01  5.00000000E-01  2.50000000E-01
                       0.00000000E+00  0.00000000E+00  5.00000000E-01
                       5.00000000E-01  0.00000000E+00  5.00000000E-01
                       0.00000000E+00  5.00000000E-01  5.00000000E-01
                       5.00000000E-01  5.00000000E-01  5.00000000E-01
                       0.00000000E+00  0.00000000E+00 -2.50000000E-01
                       5.00000000E-01  0.00000000E+00 -2.50000000E-01
                       0.00000000E+00  5.00000000E-01 -2.50000000E-01
                       5.00000000E-01  5.00000000E-01 -2.50000000E-01
              kpt3     0.00000000E+00  0.00000000E+00  0.00000000E+00
                       5.00000000E-01  0.00000000E+00  0.00000000E+00
                       0.00000000E+00  5.00000000E-01  0.00000000E+00
                       5.00000000E-01  5.00000000E-01  0.00000000E+00
                       0.00000000E+00  0.00000000E+00  2.50000000E-01
                       5.00000000E-01  0.00000000E+00  2.50000000E-01
                       0.00000000E+00  5.00000000E-01  2.50000000E-01
                       5.00000000E-01  5.00000000E-01  2.50000000E-01
                       0.00000000E+00  0.00000000E+00  5.00000000E-01
                       5.00000000E-01  0.00000000E+00  5.00000000E-01
                       0.00000000E+00  5.00000000E-01  5.00000000E-01
                       5.00000000E-01  5.00000000E-01  5.00000000E-01
                       0.00000000E+00  0.00000000E+00 -2.50000000E-01
                       5.00000000E-01  0.00000000E+00 -2.50000000E-01
                       0.00000000E+00  5.00000000E-01 -2.50000000E-01
                       5.00000000E-01  5.00000000E-01 -2.50000000E-01
              kpt4     0.00000000E+00  0.00000000E+00  0.00000000E+00
                       5.00000000E-01  0.00000000E+00  0.00000000E+00
                       0.00000000E+00  5.00000000E-01  0.00000000E+00
                       5.00000000E-01  5.00000000E-01  0.00000000E+00
                       0.00000000E+00  0.00000000E+00  2.50000000E-01
                       5.00000000E-01  0.00000000E+00  2.50000000E-01
                       0.00000000E+00  5.00000000E-01  2.50000000E-01
                       5.00000000E-01  5.00000000E-01  2.50000000E-01
                       0.00000000E+00  0.00000000E+00  5.00000000E-01
                       5.00000000E-01  0.00000000E+00  5.00000000E-01
                       0.00000000E+00  5.00000000E-01  5.00000000E-01
                       5.00000000E-01  5.00000000E-01  5.00000000E-01
                       0.00000000E+00  0.00000000E+00 -2.50000000E-01
                       5.00000000E-01  0.00000000E+00 -2.50000000E-01
                       0.00000000E+00  5.00000000E-01 -2.50000000E-01
                       5.00000000E-01  5.00000000E-01 -2.50000000E-01
              kpt5     0.00000000E+00  0.00000000E+00  0.00000000E+00
                       5.00000000E-01  0.00000000E+00  0.00000000E+00
                       0.00000000E+00  5.00000000E-01  0.00000000E+00
                       5.00000000E-01  5.00000000E-01  0.00000000E+00
                       0.00000000E+00  0.00000000E+00  2.50000000E-01
                       5.00000000E-01  0.00000000E+00  2.50000000E-01
                       0.00000000E+00  5.00000000E-01  2.50000000E-01
                       5.00000000E-01  5.00000000E-01  2.50000000E-01
                       0.00000000E+00  0.00000000E+00  5.00000000E-01
                       5.00000000E-01  0.00000000E+00  5.00000000E-01
                       0.00000000E+00  5.00000000E-01  5.00000000E-01
                       5.00000000E-01  5.00000000E-01  5.00000000E-01
                       0.00000000E+00  0.00000000E+00 -2.50000000E-01
                       5.00000000E-01  0.00000000E+00 -2.50000000E-01
                       0.00000000E+00  5.00000000E-01 -2.50000000E-01
                       5.00000000E-01  5.00000000E-01 -2.50000000E-01
              kpt6     0.00000000E+00  0.00000000E+00  0.00000000E+00
                       5.00000000E-01  0.00000000E+00  0.00000000E+00
                       0.00000000E+00  5.00000000E-01  0.00000000E+00
                       5.00000000E-01  5.00000000E-01  0.00000000E+00
                       0.00000000E+00  0.00000000E+00  2.50000000E-01
                       5.00000000E-01  0.00000000E+00  2.50000000E-01
                       0.00000000E+00  5.00000000E-01  2.50000000E-01
                       5.00000000E-01  5.00000000E-01  2.50000000E-01
                       0.00000000E+00  0.00000000E+00  5.00000000E-01
                       5.00000000E-01  0.00000000E+00  5.00000000E-01
                       0.00000000E+00  5.00000000E-01  5.00000000E-01
                       5.00000000E-01  5.00000000E-01  5.00000000E-01
                       0.00000000E+00  0.00000000E+00 -2.50000000E-01
                       5.00000000E-01  0.00000000E+00 -2.50000000E-01
                       0.00000000E+00  5.00000000E-01 -2.50000000E-01
                       5.00000000E-01  5.00000000E-01 -2.50000000E-01
              kpt7     0.00000000E+00  0.00000000E+00  0.00000000E+00
                       5.00000000E-01  0.00000000E+00  0.00000000E+00
                       0.00000000E+00  5.00000000E-01  0.00000000E+00
                       5.00000000E-01  5.00000000E-01  0.00000000E+00
                       0.00000000E+00  0.00000000E+00  2.50000000E-01
                       5.00000000E-01  0.00000000E+00  2.50000000E-01
                       0.00000000E+00  5.00000000E-01  2.50000000E-01
                       5.00000000E-01  5.00000000E-01  2.50000000E-01
                       0.00000000E+00  0.00000000E+00  5.00000000E-01
                       5.00000000E-01  0.00000000E+00  5.00000000E-01
                       0.00000000E+00  5.00000000E-01  5.00000000E-01
                       5.00000000E-01  5.00000000E-01  5.00000000E-01
                       0.00000000E+00  0.00000000E+00 -2.50000000E-01
                       5.00000000E-01  0.00000000E+00 -2.50000000E-01
                       0.00000000E+00  5.00000000E-01 -2.50000000E-01
                       5.00000000E-01  5.00000000E-01 -2.50000000E-01
              kpt8     0.00000000E+00  0.00000000E+00  0.00000000E+00
                       5.00000000E-01  0.00000000E+00  0.00000000E+00
                       0.00000000E+00  5.00000000E-01  0.00000000E+00
                       5.00000000E-01  5.00000000E-01  0.00000000E+00
                       0.00000000E+00  0.00000000E+00  2.50000000E-01
                       5.00000000E-01  0.00000000E+00  2.50000000E-01
                       0.00000000E+00  5.00000000E-01  2.50000000E-01
                       5.00000000E-01  5.00000000E-01  2.50000000E-01
                       0.00000000E+00  0.00000000E+00  5.00000000E-01
                       5.00000000E-01  0.00000000E+00  5.00000000E-01
                       0.00000000E+00  5.00000000E-01  5.00000000E-01
                       5.00000000E-01  5.00000000E-01  5.00000000E-01
                       0.00000000E+00  0.00000000E+00 -2.50000000E-01
                       5.00000000E-01  0.00000000E+00 -2.50000000E-01
                       0.00000000E+00  5.00000000E-01 -2.50000000E-01
                       5.00000000E-01  5.00000000E-01 -2.50000000E-01
              kpt9     0.00000000E+00  0.00000000E+00  0.00000000E+00
                       5.00000000E-01  0.00000000E+00  0.00000000E+00
                       0.00000000E+00  5.00000000E-01  0.00000000E+00
                       5.00000000E-01  5.00000000E-01  0.00000000E+00
                       0.00000000E+00  0.00000000E+00  2.50000000E-01
                       5.00000000E-01  0.00000000E+00  2.50000000E-01
                       0.00000000E+00  5.00000000E-01  2.50000000E-01
                       5.00000000E-01  5.00000000E-01  2.50000000E-01
                       0.00000000E+00  0.00000000E+00  5.00000000E-01
                       5.00000000E-01  0.00000000E+00  5.00000000E-01
                       0.00000000E+00  5.00000000E-01  5.00000000E-01
                       5.00000000E-01  5.00000000E-01  5.00000000E-01
                       0.00000000E+00  0.00000000E+00 -2.50000000E-01
                       5.00000000E-01  0.00000000E+00 -2.50000000E-01
                       0.00000000E+00  5.00000000E-01 -2.50000000E-01
                       5.00000000E-01  5.00000000E-01 -2.50000000E-01
              kpt10    0.00000000E+00  0.00000000E+00  0.00000000E+00
                       5.00000000E-01  0.00000000E+00  0.00000000E+00
                       0.00000000E+00  5.00000000E-01  0.00000000E+00
                       5.00000000E-01  5.00000000E-01  0.00000000E+00
                       0.00000000E+00  0.00000000E+00  2.50000000E-01
                       5.00000000E-01  0.00000000E+00  2.50000000E-01
                       0.00000000E+00  5.00000000E-01  2.50000000E-01
                       5.00000000E-01  5.00000000E-01  2.50000000E-01
                       0.00000000E+00  0.00000000E+00  5.00000000E-01
                       5.00000000E-01  0.00000000E+00  5.00000000E-01
                       0.00000000E+00  5.00000000E-01  5.00000000E-01
                       5.00000000E-01  5.00000000E-01  5.00000000E-01
                       0.00000000E+00  0.00000000E+00 -2.50000000E-01
                       5.00000000E-01  0.00000000E+00 -2.50000000E-01
                       0.00000000E+00  5.00000000E-01 -2.50000000E-01
                       5.00000000E-01  5.00000000E-01 -2.50000000E-01
              kpt11    0.00000000E+00  0.00000000E+00  0.00000000E+00
                       5.00000000E-01  0.00000000E+00  0.00000000E+00
                       0.00000000E+00  5.00000000E-01  0.00000000E+00
                       5.00000000E-01  5.00000000E-01  0.00000000E+00
                       0.00000000E+00  0.00000000E+00  2.50000000E-01
                       5.00000000E-01  0.00000000E+00  2.50000000E-01
                       0.00000000E+00  5.00000000E-01  2.50000000E-01
                       5.00000000E-01  5.00000000E-01  2.50000000E-01
                       0.00000000E+00  0.00000000E+00  5.00000000E-01
                       5.00000000E-01  0.00000000E+00  5.00000000E-01
                       0.00000000E+00  5.00000000E-01  5.00000000E-01
                       5.00000000E-01  5.00000000E-01  5.00000000E-01
                       0.00000000E+00  0.00000000E+00 -2.50000000E-01
                       5.00000000E-01  0.00000000E+00 -2.50000000E-01
                       0.00000000E+00  5.00000000E-01 -2.50000000E-01
                       5.00000000E-01  5.00000000E-01 -2.50000000E-01
              kpt12    0.00000000E+00  0.00000000E+00  0.00000000E+00
                       5.00000000E-01  0.00000000E+00  0.00000000E+00
                       0.00000000E+00  5.00000000E-01  0.00000000E+00
                       5.00000000E-01  5.00000000E-01  0.00000000E+00
                       0.00000000E+00  0.00000000E+00  2.50000000E-01
                       5.00000000E-01  0.00000000E+00  2.50000000E-01
                       0.00000000E+00  5.00000000E-01  2.50000000E-01
                       5.00000000E-01  5.00000000E-01  2.50000000E-01
                       0.00000000E+00  0.00000000E+00  5.00000000E-01
                       5.00000000E-01  0.00000000E+00  5.00000000E-01
                       0.00000000E+00  5.00000000E-01  5.00000000E-01
                       5.00000000E-01  5.00000000E-01  5.00000000E-01
                       0.00000000E+00  0.00000000E+00 -2.50000000E-01
                       5.00000000E-01  0.00000000E+00 -2.50000000E-01
                       0.00000000E+00  5.00000000E-01 -2.50000000E-01
                       5.00000000E-01  5.00000000E-01 -2.50000000E-01
           kptopt1          1
           kptopt2          3
           kptopt3          3
           kptopt4          3
           kptopt5          3
           kptopt6          3
           kptopt7          3
           kptopt8          3
           kptopt9          3
           kptopt10         3
           kptopt11         3
           kptopt12         3
         kptrlatt        2    0    0      0    2    0      0    0    4
          kptrlen      1.11524077E+01
P           mkmem1          6
P           mkmem2         16
P           mkmem3         16
P           mkmem4         16
P           mkmem5         16
P           mkmem6         16
P           mkmem7         16
P           mkmem8         16
P           mkmem9         16
P           mkmem10        16
P           mkmem11        16
P           mkmem12        16
P          mkqmem1          6
P          mkqmem2         16
P          mkqmem3         16
P          mkqmem4         16
P          mkqmem5         16
P          mkqmem6         16
P          mkqmem7         16
P          mkqmem8         16
P          mkqmem9         16
P          mkqmem10        16
P          mkqmem11        16
P          mkqmem12        16
P          mk1mem1          6
P          mk1mem2         16
P          mk1mem3         16
P          mk1mem4         16
P          mk1mem5         16
P          mk1mem6         16
P          mk1mem7         16
P          mk1mem8         16
P          mk1mem9         16
P          mk1mem10        16
P          mk1mem11        16
P          mk1mem12        16
            natom           2
            nband1          8
            nband2          8
            nband3          8
            nband4          8
            nband5          8
            nband6          8
            nband7          8
            nband8          8
            nband9          8
            nband10         8
            nband11         8
            nband12         8
           nbdbuf           2
           ndtset          12
            ngfft           8       8      12
             nkpt1          6
             nkpt2         16
             nkpt3         16
             nkpt4         16
             nkpt5         16
             nkpt6         16
             nkpt7         16
             nkpt8         16
             nkpt9         16
             nkpt10        16
             nkpt11        16
             nkpt12        16
            nline1          8
            nline2          8
            nline3          8
            nline4          8
            nline5          8
            nline6          8
            nline7          1
            nline8          1
            nline9          1
            nline10         1
            nline11         1
            nline12         1
             nqpt1          0
             nqpt2          1
             nqpt3          1
             nqpt4          1
             nqpt5          1
             nqpt6          1
             nqpt7          0
             nqpt8          1
             nqpt9          1
             nqpt10         1
             nqpt11         1
             nqpt12         1
            nstep1        100
            nstep2        100
            nstep3        100
            nstep4        100
            nstep5        100
            nstep6        100
            nstep7          1
            nstep8          1
            nstep9          1
            nstep10         1
            nstep11         1
            nstep12         1
             nsym          12
           ntypat           2
              occ1     2.000000  2.000000  2.000000  2.000000  1.000000  0.000000
                       0.000000  0.000000
                       2.000000  2.000000  2.000000  2.000000  1.000000  0.000000
                       0.000000  0.000000
                       2.000000  2.000000  2.000000  2.000000  1.000000  0.000000
                       0.000000  0.000000
                       2.000000  2.000000  2.000000  2.000000  1.000000  0.000000
                       0.000000  0.000000
                       2.000000  2.000000  2.000000  2.000000  1.000000  0.000000
                       0.000000  0.000000
                       2.000000  2.000000  2.000000  2.000000  1.000000  0.000000
                       0.000000  0.000000
              occ2     2.000000  2.000000  2.000000  2.000000  1.000000  0.000000
                       0.000000  0.000000
                       2.000000  2.000000  2.000000  2.000000  1.000000  0.000000
                       0.000000  0.000000
                       2.000000  2.000000  2.000000  2.000000  1.000000  0.000000
                       0.000000  0.000000
                       2.000000  2.000000  2.000000  2.000000  1.000000  0.000000
                       0.000000  0.000000
                       2.000000  2.000000  2.000000  2.000000  1.000000  0.000000
                       0.000000  0.000000
                       2.000000  2.000000  2.000000  2.000000  1.000000  0.000000
                       0.000000  0.000000
                       2.000000  2.000000  2.000000  2.000000  1.000000  0.000000
                       0.000000  0.000000
                       2.000000  2.000000  2.000000  2.000000  1.000000  0.000000
                       0.000000  0.000000
                       2.000000  2.000000  2.000000  2.000000  1.000000  0.000000
                       0.000000  0.000000
                       2.000000  2.000000  2.000000  2.000000  1.000000  0.000000
                       0.000000  0.000000
                       2.000000  2.000000  2.000000  2.000000  1.000000  0.000000
                       0.000000  0.000000
                       2.000000  2.000000  2.000000  2.000000  1.000000  0.000000
                       0.000000  0.000000
                       2.000000  2.000000  2.000000  2.000000  1.000000  0.000000
                       0.000000  0.000000
                       2.000000  2.000000  2.000000  2.000000  1.000000  0.000000
                       0.000000  0.000000
                       2.000000  2.000000  2.000000  2.000000  1.000000  0.000000
                       0.000000  0.000000
                       2.000000  2.000000  2.000000  2.000000  1.000000  0.000000
                       0.000000  0.000000
              occ3     2.000000  2.000000  2.000000  2.000000  1.000000  0.000000
                       0.000000  0.000000
                       2.000000  2.000000  2.000000  2.000000  1.000000  0.000000
                       0.000000  0.000000
                       2.000000  2.000000  2.000000  2.000000  1.000000  0.000000
                       0.000000  0.000000
                       2.000000  2.000000  2.000000  2.000000  1.000000  0.000000
                       0.000000  0.000000
                       2.000000  2.000000  2.000000  2.000000  1.000000  0.000000
                       0.000000  0.000000
                       2.000000  2.000000  2.000000  2.000000  1.000000  0.000000
                       0.000000  0.000000
                       2.000000  2.000000  2.000000  2.000000  1.000000  0.000000
                       0.000000  0.000000
                       2.000000  2.000000  2.000000  2.000000  1.000000  0.000000
                       0.000000  0.000000
                       2.000000  2.000000  2.000000  2.000000  1.000000  0.000000
                       0.000000  0.000000
                       2.000000  2.000000  2.000000  2.000000  1.000000  0.000000
                       0.000000  0.000000
                       2.000000  2.000000  2.000000  2.000000  1.000000  0.000000
                       0.000000  0.000000
                       2.000000  2.000000  2.000000  2.000000  1.000000  0.000000
                       0.000000  0.000000
                       2.000000  2.000000  2.000000  2.000000  1.000000  0.000000
                       0.000000  0.000000
                       2.000000  2.000000  2.000000  2.000000  1.000000  0.000000
                       0.000000  0.000000
                       2.000000  2.000000  2.000000  2.000000  1.000000  0.000000
                       0.000000  0.000000
                       2.000000  2.000000  2.000000  2.000000  1.000000  0.000000
                       0.000000  0.000000
              occ4     2.000000  2.000000  2.000000  2.000000  1.000000  0.000000
                       0.000000  0.000000
                       2.000000  2.000000  2.000000  2.000000  1.000000  0.000000
                       0.000000  0.000000
                       2.000000  2.000000  2.000000  2.000000  1.000000  0.000000
                       0.000000  0.000000
                       2.000000  2.000000  2.000000  2.000000  1.000000  0.000000
                       0.000000  0.000000
                       2.000000  2.000000  2.000000  2.000000  1.000000  0.000000
                       0.000000  0.000000
                       2.000000  2.000000  2.000000  2.000000  1.000000  0.000000
                       0.000000  0.000000
                       2.000000  2.000000  2.000000  2.000000  1.000000  0.000000
                       0.000000  0.000000
                       2.000000  2.000000  2.000000  2.000000  1.000000  0.000000
                       0.000000  0.000000
                       2.000000  2.000000  2.000000  2.000000  1.000000  0.000000
                       0.000000  0.000000
                       2.000000  2.000000  2.000000  2.000000  1.000000  0.000000
                       0.000000  0.000000
                       2.000000  2.000000  2.000000  2.000000  1.000000  0.000000
                       0.000000  0.000000
                       2.000000  2.000000  2.000000  2.000000  1.000000  0.000000
                       0.000000  0.000000
                       2.000000  2.000000  2.000000  2.000000  1.000000  0.000000
                       0.000000  0.000000
                       2.000000  2.000000  2.000000  2.000000  1.000000  0.000000
                       0.000000  0.000000
                       2.000000  2.000000  2.000000  2.000000  1.000000  0.000000
                       0.000000  0.000000
                       2.000000  2.000000  2.000000  2.000000  1.000000  0.000000
                       0.000000  0.000000
              occ5     2.000000  2.000000  2.000000  2.000000  1.000000  0.000000
                       0.000000  0.000000
                       2.000000  2.000000  2.000000  2.000000  1.000000  0.000000
                       0.000000  0.000000
                       2.000000  2.000000  2.000000  2.000000  1.000000  0.000000
                       0.000000  0.000000
                       2.000000  2.000000  2.000000  2.000000  1.000000  0.000000
                       0.000000  0.000000
                       2.000000  2.000000  2.000000  2.000000  1.000000  0.000000
                       0.000000  0.000000
                       2.000000  2.000000  2.000000  2.000000  1.000000  0.000000
                       0.000000  0.000000
                       2.000000  2.000000  2.000000  2.000000  1.000000  0.000000
                       0.000000  0.000000
                       2.000000  2.000000  2.000000  2.000000  1.000000  0.000000
                       0.000000  0.000000
                       2.000000  2.000000  2.000000  2.000000  1.000000  0.000000
                       0.000000  0.000000
                       2.000000  2.000000  2.000000  2.000000  1.000000  0.000000
                       0.000000  0.000000
                       2.000000  2.000000  2.000000  2.000000  1.000000  0.000000
                       0.000000  0.000000
                       2.000000  2.000000  2.000000  2.000000  1.000000  0.000000
                       0.000000  0.000000
                       2.000000  2.000000  2.000000  2.000000  1.000000  0.000000
                       0.000000  0.000000
                       2.000000  2.000000  2.000000  2.000000  1.000000  0.000000
                       0.000000  0.000000
                       2.000000  2.000000  2.000000  2.000000  1.000000  0.000000
                       0.000000  0.000000
                       2.000000  2.000000  2.000000  2.000000  1.000000  0.000000
                       0.000000  0.000000
              occ6     2.000000  2.000000  2.000000  2.000000  1.000000  0.000000
                       0.000000  0.000000
                       2.000000  2.000000  2.000000  2.000000  1.000000  0.000000
                       0.000000  0.000000
                       2.000000  2.000000  2.000000  2.000000  1.000000  0.000000
                       0.000000  0.000000
                       2.000000  2.000000  2.000000  2.000000  1.000000  0.000000
                       0.000000  0.000000
                       2.000000  2.000000  2.000000  2.000000  1.000000  0.000000
                       0.000000  0.000000
                       2.000000  2.000000  2.000000  2.000000  1.000000  0.000000
                       0.000000  0.000000
                       2.000000  2.000000  2.000000  2.000000  1.000000  0.000000
                       0.000000  0.000000
                       2.000000  2.000000  2.000000  2.000000  1.000000  0.000000
                       0.000000  0.000000
                       2.000000  2.000000  2.000000  2.000000  1.000000  0.000000
                       0.000000  0.000000
                       2.000000  2.000000  2.000000  2.000000  1.000000  0.000000
                       0.000000  0.000000
                       2.000000  2.000000  2.000000  2.000000  1.000000  0.000000
                       0.000000  0.000000
                       2.000000  2.000000  2.000000  2.000000  1.000000  0.000000
                       0.000000  0.000000
                       2.000000  2.000000  2.000000  2.000000  1.000000  0.000000
                       0.000000  0.000000
                       2.000000  2.000000  2.000000  2.000000  1.000000  0.000000
                       0.000000  0.000000
                       2.000000  2.000000  2.000000  2.000000  1.000000  0.000000
                       0.000000  0.000000
                       2.000000  2.000000  2.000000  2.000000  1.000000  0.000000
                       0.000000  0.000000
              occ7     2.000000  2.000000  2.000000  2.000000  1.000000  0.000000
                       0.000000  0.000000
                       2.000000  2.000000  2.000000  2.000000  1.000000  0.000000
                       0.000000  0.000000
                       2.000000  2.000000  2.000000  2.000000  1.000000  0.000000
                       0.000000  0.000000
                       2.000000  2.000000  2.000000  2.000000  1.000000  0.000000
                       0.000000  0.000000
                       2.000000  2.000000  2.000000  2.000000  1.000000  0.000000
                       0.000000  0.000000
                       2.000000  2.000000  2.000000  2.000000  1.000000  0.000000
                       0.000000  0.000000
                       2.000000  2.000000  2.000000  2.000000  1.000000  0.000000
                       0.000000  0.000000
                       2.000000  2.000000  2.000000  2.000000  1.000000  0.000000
                       0.000000  0.000000
                       2.000000  2.000000  2.000000  2.000000  1.000000  0.000000
                       0.000000  0.000000
                       2.000000  2.000000  2.000000  2.000000  1.000000  0.000000
                       0.000000  0.000000
                       2.000000  2.000000  2.000000  2.000000  1.000000  0.000000
                       0.000000  0.000000
                       2.000000  2.000000  2.000000  2.000000  1.000000  0.000000
                       0.000000  0.000000
                       2.000000  2.000000  2.000000  2.000000  1.000000  0.000000
                       0.000000  0.000000
                       2.000000  2.000000  2.000000  2.000000  1.000000  0.000000
                       0.000000  0.000000
                       2.000000  2.000000  2.000000  2.000000  1.000000  0.000000
                       0.000000  0.000000
                       2.000000  2.000000  2.000000  2.000000  1.000000  0.000000
                       0.000000  0.000000
              occ12    2.000000  2.000000  2.000000  2.000000  1.000000  0.000000
                       0.000000  0.000000
                       2.000000  2.000000  2.000000  2.000000  1.000000  0.000000
                       0.000000  0.000000
                       2.000000  2.000000  2.000000  2.000000  1.000000  0.000000
                       0.000000  0.000000
                       2.000000  2.000000  2.000000  2.000000  1.000000  0.000000
                       0.000000  0.000000
                       2.000000  2.000000  2.000000  2.000000  1.000000  0.000000
                       0.000000  0.000000
                       2.000000  2.000000  2.000000  2.000000  1.000000  0.000000
                       0.000000  0.000000
                       2.000000  2.000000  2.000000  2.000000  1.000000  0.000000
                       0.000000  0.000000
                       2.000000  2.000000  2.000000  2.000000  1.000000  0.000000
                       0.000000  0.000000
                       2.000000  2.000000  2.000000  2.000000  1.000000  0.000000
                       0.000000  0.000000
                       2.000000  2.000000  2.000000  2.000000  1.000000  0.000000
                       0.000000  0.000000
                       2.000000  2.000000  2.000000  2.000000  1.000000  0.000000
                       0.000000  0.000000
                       2.000000  2.000000  2.000000  2.000000  1.000000  0.000000
                       0.000000  0.000000
                       2.000000  2.000000  2.000000  2.000000  1.000000  0.000000
                       0.000000  0.000000
                       2.000000  2.000000  2.000000  2.000000  1.000000  0.000000
                       0.000000  0.000000
                       2.000000  2.000000  2.000000  2.000000  1.000000  0.000000
                       0.000000  0.000000
                       2.000000  2.000000  2.000000  2.000000  1.000000  0.000000
                       0.000000  0.000000
           occopt           7
        optdriver1          0
        optdriver2          1
        optdriver3          1
        optdriver4          1
        optdriver5          1
        optdriver6          1
        optdriver7          0
        optdriver8          1
        optdriver9          1
        optdriver10         1
        optdriver11         1
        optdriver12         1
          prepgkk           1
           prtgkk1          0
           prtgkk2          0
           prtgkk3          0
           prtgkk4          0
           prtgkk5          0
           prtgkk6          0
           prtgkk7          0
           prtgkk8          1
           prtgkk9          1
           prtgkk10         1
           prtgkk11         1
           prtgkk12         1
            prtwf1          1
            prtwf2          0
            prtwf3          0
            prtwf4          0
            prtwf5          0
            prtwf6          0
            prtwf7          1
            prtwf8          0
            prtwf9          0
            prtwf10         0
            prtwf11         0
            prtwf12         0
              qpt1     0.00000000E+00  0.00000000E+00  0.00000000E+00
              qpt2     0.00000000E+00  0.00000000E+00  0.00000000E+00
              qpt3     5.00000000E-01  0.00000000E+00  0.00000000E+00
              qpt4     0.00000000E+00  0.00000000E+00  5.00000000E-01
              qpt5     5.00000000E-01  0.00000000E+00  5.00000000E-01
              qpt6     0.00000000E+00  0.00000000E+00  0.00000000E+00
              qpt7     0.00000000E+00  0.00000000E+00  0.00000000E+00
              qpt8     0.00000000E+00  0.00000000E+00  0.00000000E+00
              qpt9     5.00000000E-01  0.00000000E+00  0.00000000E+00
              qpt10    0.00000000E+00  0.00000000E+00  5.00000000E-01
              qpt11    5.00000000E-01  0.00000000E+00  5.00000000E-01
              qpt12    0.00000000E+00  0.00000000E+00  0.00000000E+00
          rfatpol           1       2
            rfdir           1       1       1
           rfelfd1          0
           rfelfd2          0
           rfelfd3          0
           rfelfd4          0
           rfelfd5          0
           rfelfd6          2
           rfelfd7          0
           rfelfd8          0
           rfelfd9          0
           rfelfd10         0
           rfelfd11         0
           rfelfd12         2
           rfphon1          0
           rfphon2          1
           rfphon3          1
           rfphon4          1
           rfphon5          1
           rfphon6          0
           rfphon7          0
           rfphon8          1
           rfphon9          1
           rfphon10         1
           rfphon11         1
           rfphon12         0
            rprim      1.0000000000E+00  0.0000000000E+00  0.0000000000E+00
                      -5.0000000000E-01  8.6602540378E-01  0.0000000000E+00
                       6.1232339957E-17  1.0605752387E-16  1.0000000000E+00
          spgroup         187
           symrel      1  0  0   0  1  0   0  0  1       0 -1  0  -1  0  0   0  0 -1
                      -1 -1  0   1  0  0   0  0 -1      -1  0  0   1  1  0   0  0  1
                       0  1  0  -1 -1  0   0  0  1       1  1  0   0 -1  0   0  0 -1
                       1  0  0   0  1  0   0  0 -1       0 -1  0  -1  0  0   0  0  1
                      -1 -1  0   1  0  0   0  0  1      -1  0  0   1  1  0   0  0 -1
                       0  1  0  -1 -1  0   0  0 -1       1  1  0   0 -1  0   0  0  1
           tolvrs1     0.00000000E+00
           tolvrs2     1.00000000E-08
           tolvrs3     1.00000000E-08
           tolvrs4     1.00000000E-08
           tolvrs5     1.00000000E-08
           tolvrs6     0.00000000E+00
           tolvrs7     0.00000000E+00
           tolvrs8     0.00000000E+00
           tolvrs9     0.00000000E+00
           tolvrs10    0.00000000E+00
           tolvrs11    0.00000000E+00
           tolvrs12    0.00000000E+00
           tolwfr1     1.00000000E-14
           tolwfr2     0.00000000E+00
           tolwfr3     0.00000000E+00
           tolwfr4     0.00000000E+00
           tolwfr5     0.00000000E+00
           tolwfr6     1.00000000E-14
           tolwfr7     1.00000000E-14
           tolwfr8     1.00000000E-14
           tolwfr9     1.00000000E-14
           tolwfr10    1.00000000E-14
           tolwfr11    1.00000000E-14
           tolwfr12    1.00000000E-14
           tsmear      1.00000000E-03 Hartree
            typat      1  2
              wtk1       0.06250    0.18750    0.12500    0.37500    0.06250    0.18750
              wtk2       0.06250    0.06250    0.06250    0.06250    0.06250    0.06250
                         0.06250    0.06250    0.06250    0.06250    0.06250    0.06250
                         0.06250    0.06250    0.06250    0.06250
              wtk3       0.06250    0.06250    0.06250    0.06250    0.06250    0.06250
                         0.06250    0.06250    0.06250    0.06250    0.06250    0.06250
                         0.06250    0.06250    0.06250    0.06250
              wtk4       0.06250    0.06250    0.06250    0.06250    0.06250    0.06250
                         0.06250    0.06250    0.06250    0.06250    0.06250    0.06250
                         0.06250    0.06250    0.06250    0.06250
              wtk5       0.06250    0.06250    0.06250    0.06250    0.06250    0.06250
                         0.06250    0.06250    0.06250    0.06250    0.06250    0.06250
                         0.06250    0.06250    0.06250    0.06250
              wtk6       0.06250    0.06250    0.06250    0.06250    0.06250    0.06250
                         0.06250    0.06250    0.06250    0.06250    0.06250    0.06250
                         0.06250    0.06250    0.06250    0.06250
              wtk7       0.06250    0.06250    0.06250    0.06250    0.06250    0.06250
                         0.06250    0.06250    0.06250    0.06250    0.06250    0.06250
                         0.06250    0.06250    0.06250    0.06250
              wtk8       0.06250    0.06250    0.06250    0.06250    0.06250    0.06250
                         0.06250    0.06250    0.06250    0.06250    0.06250    0.06250
                         0.06250    0.06250    0.06250    0.06250
              wtk9       0.06250    0.06250    0.06250    0.06250    0.06250    0.06250
                         0.06250    0.06250    0.06250    0.06250    0.06250    0.06250
                         0.06250    0.06250    0.06250    0.06250
              wtk10      0.06250    0.06250    0.06250    0.06250    0.06250    0.06250
                         0.06250    0.06250    0.06250    0.06250    0.06250    0.06250
                         0.06250    0.06250    0.06250    0.06250
              wtk11      0.06250    0.06250    0.06250    0.06250    0.06250    0.06250
                         0.06250    0.06250    0.06250    0.06250    0.06250    0.06250
                         0.06250    0.06250    0.06250    0.06250
              wtk12      0.06250    0.06250    0.06250    0.06250    0.06250    0.06250
                         0.06250    0.06250    0.06250    0.06250    0.06250    0.06250
                         0.06250    0.06250    0.06250    0.06250
           xangst      0.0000000000E+00  0.0000000000E+00  0.0000000000E+00
                       6.1345584130E-16  1.7036451743E+00  2.3427500000E+00
            xcart      0.0000000000E+00  0.0000000000E+00  0.0000000000E+00
                       1.1592635347E-15  3.2194228071E+00  4.4271558978E+00
             xred      0.0000000000E+00  0.0000000000E+00  0.0000000000E+00
                       3.3333333333E-01  6.6666666667E-01  5.0000000000E-01
            znucl       22.00000   41.00000

================================================================================

 chkinp: Checking input parameters for consistency, jdtset=   1.

 chkinp: Checking input parameters for consistency, jdtset=   2.

 chkinp: Checking input parameters for consistency, jdtset=   3.

 chkinp: Checking input parameters for consistency, jdtset=   4.

 chkinp: Checking input parameters for consistency, jdtset=   5.

 chkinp: Checking input parameters for consistency, jdtset=   6.

 chkinp: Checking input parameters for consistency, jdtset=   7.

 chkinp: Checking input parameters for consistency, jdtset=   8.

 chkinp: Checking input parameters for consistency, jdtset=   9.

 chkinp: Checking input parameters for consistency, jdtset=  10.

 chkinp: Checking input parameters for consistency, jdtset=  11.

 chkinp: Checking input parameters for consistency, jdtset=  12.

================================================================================
== DATASET  1 ==================================================================
-   nproc =    1

 Exchange-correlation functional for the present dataset will be:
  LDA: new Teter (4/93) with spin-polarized option - ixc=1
 Citation for XC functional:
  S. Goedecker, M. Teter, J. Huetter, PRB 54, 1703 (1996)

 Real(R)+Recip(G) space primitive vectors, cartesian coordinates (Bohr,Bohr^-1):
 R(1)=  5.5762039  0.0000000  0.0000000  G(1)=  0.1793335  0.1035382  0.0000000
 R(2)= -2.7881019  4.8291342  0.0000000  G(2)=  0.0000000  0.2070765  0.0000000
 R(3)=  0.0000000  0.0000000  8.8543118  G(3)=  0.0000000  0.0000000  0.1129393
 Unit cell volume ucvol=  2.3843101E+02 bohr^3
 Angles (23,13,12)=  9.00000000E+01  9.00000000E+01  1.20000000E+02 degrees

 getcut: wavevector=  0.0000  0.0000  0.0000  ngfft=   8   8  12
         ecut(hartree)=      2.000   => boxcut(ratio)=   2.12886

--- Pseudopotential description ------------------------------------------------
- pspini: atom type   1  psp file is /home/gonze/ABINIT/ABINITv7.10.4/trunk/7.10.4-private/tests/Psps_for_tests/22ti.pspnc
- pspatm: opening atomic psp file    /home/gonze/ABINIT/ABINITv7.10.4/trunk/7.10.4-private/tests/Psps_for_tests/22ti.pspnc
-  Troullier-Martins psp for element  Ti        Thu Oct 27 17:33:40 EDT 1994
- 22.00000   4.00000    940714                znucl, zion, pspdat
    1    1    2    0      2001   0.00000      pspcod,pspxc,lmax,lloc,mmax,r2well
    0   5.166   8.509    0   2.4203472        l,e99.0,e99.9,nproj,rcpsp
   0.00000000   0.00000000   0.00000000   0.00000000     rms, ekb1, ekb2, epsatm
    1   2.285   3.944    1   2.9934301        l,e99.0,e99.9,nproj,rcpsp
   0.00000000   0.00000000   0.00000000   0.00000000     rms, ekb1, ekb2, epsatm
    2  20.947  27.069    1   1.9326638        l,e99.0,e99.9,nproj,rcpsp
   0.00000000   0.00000000   0.00000000   0.00000000     rms, ekb1, ekb2, epsatm
    2.82741504495369    0.09256629068341    1.82586447305099   rchrg,fchrg,qchrg
 pspatm: epsatm=   66.67453488
         --- l  ekb(1:nproj) -->
             1    0.915537
             2   -8.015692
 pspatm: atomic psp has been read  and splines computed

- pspini: atom type   2  psp file is /home/gonze/ABINIT/ABINITv7.10.4/trunk/7.10.4-private/tests/Psps_for_tests/41nb.pspfhi
- pspatm: opening atomic psp file    /home/gonze/ABINIT/ABINITv7.10.4/trunk/7.10.4-private/tests/Psps_for_tests/41nb.pspfhi
- Niobium, fhi98PP : TM-type, LDA, l=0 local
- 41.00000   5.00000     10122                znucl, zion, pspdat
    6    7    2    0       539   0.00000      pspcod,pspxc,lmax,lloc,mmax,r2well
  No XC core correction.
  1.024700          amesh (Hamman grid)
 pspatm: epsatm=   80.47945735
         --- l  ekb(1:nproj) -->
             1    0.532418
             2   -3.945072
 pspatm: atomic psp has been read  and splines computed

   1.32438593E+03                                ecore*ucvol(ha*bohr**3)
--------------------------------------------------------------------------------

P newkpt: treating      8 bands with npw=      18 for ikpt=   1 by node    0
P newkpt: treating      8 bands with npw=      17 for ikpt=   2 by node    0
P newkpt: treating      8 bands with npw=      30 for ikpt=   3 by node    0
P newkpt: treating      8 bands with npw=      34 for ikpt=   4 by node    0
P newkpt: treating      8 bands with npw=      15 for ikpt=   5 by node    0
P newkpt: treating      8 bands with npw=      16 for ikpt=   6 by node    0

_setup2: Arith. and geom. avg. npw (full set) are      32.938      32.896

================================================================================

     iter   Etot(hartree)      deltaE(h)  residm     vres2
 ETOT  1  -7.7725646134902    -7.773E+00 1.050E-03 4.326E+00
 ETOT  2  -7.7860366053204    -1.347E-02 1.732E-07 2.284E-01
 ETOT  3  -7.7863314642560    -2.949E-04 3.682E-05 1.327E-01
 ETOT  4  -7.7873244859328    -9.930E-04 1.450E-05 3.800E-03
 ETOT  5  -7.7870126262181     3.119E-04 1.130E-06 2.429E-02
 ETOT  6  -7.7873914866984    -3.789E-04 5.145E-07 2.206E-06
 ETOT  7  -7.7873914764376     1.026E-08 4.841E-11 3.757E-06
 ETOT  8  -7.7873915364630    -6.003E-08 6.577E-11 1.458E-07
 ETOT  9  -7.7873915387453    -2.282E-09 2.830E-12 3.174E-09
 ETOT 10  -7.7873915387936    -4.824E-11 5.715E-14 1.010E-10
 ETOT 11  -7.7873915387951    -1.543E-12 9.127E-15 5.444E-13

 At SCF step   11   max residual=  9.13E-15 < tolwfr=  1.00E-14 =>converged.

 Cartesian components of stress tensor (hartree/bohr^3)
  sigma(1 1)= -2.80287713E-03  sigma(3 2)=  0.00000000E+00
  sigma(2 2)= -2.80287713E-03  sigma(3 1)=  0.00000000E+00
  sigma(3 3)= -4.96706803E-03  sigma(2 1)=  0.00000000E+00

================================================================================

 ----iterations are completed or convergence reached----

 Mean square residual over all n,k,spin=   3.7889E-15; max=  9.4064E-15
   0.0000  0.0000  0.0000    1  8.40207E-15 kpt; spin; max resid(k); each band:
  2.24E-15 2.35E-15 4.68E-15 3.86E-15 4.03E-15 4.96E-15 8.40E-15 6.31E-15
   0.5000  0.0000  0.0000    1  9.40641E-15 kpt; spin; max resid(k); each band:
  1.99E-15 2.35E-15 9.68E-16 3.40E-15 2.10E-15 2.96E-15 6.09E-16 9.41E-15
   0.0000  0.0000  0.2500    1  9.40377E-15 kpt; spin; max resid(k); each band:
  2.06E-15 2.41E-15 1.86E-15 2.75E-15 2.74E-15 3.18E-15 9.40E-15 9.18E-15
   0.5000  0.0000  0.2500    1  6.67553E-15 kpt; spin; max resid(k); each band:
  1.95E-15 2.50E-15 2.29E-15 6.68E-15 1.46E-15 3.31E-15 6.28E-15 1.76E-15
   0.0000  0.0000  0.5000    1  9.12686E-15 kpt; spin; max resid(k); each band:
  6.21E-15 3.43E-15 1.58E-15 2.54E-15 9.70E-16 9.13E-15 3.02E-15 4.25E-15
   0.5000  0.0000  0.5000    1  9.59905E-15 kpt; spin; max resid(k); each band:
  3.13E-15 2.63E-15 3.14E-15 1.97E-15 1.53E-15 3.32E-15 4.97E-15 9.60E-15
 reduced coordinates (array xred) for    2 atoms
       0.000000000000      0.000000000000      0.000000000000
       0.333333333333      0.666666666667      0.500000000000
 rms dE/dt=  0.0000E+00; max dE/dt=  0.0000E+00; dE/dt below (all hartree)
    1       0.000000000000      0.000000000000      0.000000000000
    2       0.000000000000      0.000000000000      0.000000000000

 cartesian coordinates (angstrom) at end:
    1      0.00000000000000     0.00000000000000     0.00000000000000
    2      0.00000000000000     1.70364517432475     2.34275000000000

 cartesian forces (hartree/bohr) at end:
    1     -0.00000000000000    -0.00000000000000    -0.00000000000000
    2     -0.00000000000000    -0.00000000000000    -0.00000000000000
 frms,max,avg= 0.0000000E+00 0.0000000E+00   0.000E+00  0.000E+00  0.000E+00 h/b

 cartesian forces (eV/Angstrom) at end:
    1     -0.00000000000000    -0.00000000000000    -0.00000000000000
    2     -0.00000000000000    -0.00000000000000    -0.00000000000000
 frms,max,avg= 0.0000000E+00 0.0000000E+00   0.000E+00  0.000E+00  0.000E+00 e/A
 length scales=  5.576203872919  5.576203872919  8.854311795636 bohr
              =  2.950800000000  2.950800000000  4.685500000000 angstroms
 prteigrs : about to open file t72o_DS1_EIG
 Fermi (or HOMO) energy (hartree) =   0.03188   Average Vxc (hartree)=  -0.39977
 Eigenvalues (hartree) for nkpt=   6  k points:
 kpt#   1, nband=  8, wtk=  0.06250, kpt=  0.0000  0.0000  0.0000 (reduced coord)
  -0.46979  -0.22647  -0.19569   0.13994   0.13994   0.23753   0.29647   0.29647
      occupation numbers for kpt#   1
   2.00000   2.00000   2.00000   0.00000   0.00000   0.00000   0.00000   0.00000
 kpt#   2, nband=  8, wtk=  0.18750, kpt=  0.5000  0.0000  0.0000 (reduced coord)
  -0.26106  -0.22920  -0.11892  -0.08524  -0.00635   0.03229   0.18071   0.20312
      occupation numbers for kpt#   2
   2.00000   2.00000   2.00000   2.00000   2.00000   0.56160   0.00000   0.00000
 kpt#   3, nband=  8, wtk=  0.12500, kpt=  0.0000  0.0000  0.2500 (reduced coord)
  -0.44928  -0.31250  -0.10380   0.14713   0.14713   0.17665   0.27440   0.27440
      occupation numbers for kpt#   3
   2.00000   2.00000   2.00000   0.00000   0.00000   0.00000   0.00000   0.00000
 kpt#   4, nband=  8, wtk=  0.37500, kpt=  0.5000  0.0000  0.2500 (reduced coord)
  -0.24405  -0.22175  -0.14711  -0.12421   0.01499   0.08386   0.15518   0.23457
      occupation numbers for kpt#   4
   2.00000   2.00000   2.00000   2.00000   2.00000   0.00000   0.00000   0.00000
 kpt#   5, nband=  8, wtk=  0.06250, kpt=  0.0000  0.0000  0.5000 (reduced coord)
  -0.40460  -0.38507  -0.02169   0.08531   0.14791   0.14791   0.25369   0.25369
      occupation numbers for kpt#   5
   2.00000   2.00000   2.00000   0.00000   0.00000   0.00000   0.00000   0.00000
 kpt#   6, nband=  8, wtk=  0.18750, kpt=  0.5000  0.0000  0.5000 (reduced coord)
  -0.21279  -0.20844  -0.17484  -0.16602   0.03147   0.11347   0.15226   0.25524
      occupation numbers for kpt#   6
   2.00000   2.00000   2.00000   2.00000   1.43840   0.00000   0.00000   0.00000
 Total charge density [el/Bohr^3]
,     Maximum=    6.8258E-02  at reduced coord.    0.0000    0.0000    0.5000
,Next maximum=    6.7503E-02  at reduced coord.    0.0000    0.0000    0.5833
,     Minimum=    1.4845E-03  at reduced coord.    0.0000    0.0000    0.0000
,Next minimum=    1.7931E-03  at reduced coord.    0.2500    0.6250    0.5000
,  Integrated=    9.0000E+00

--------------------------------------------------------------------------------
 Components of total free energy (in Hartree) :

    Kinetic energy  =  3.40939559945465E+00
    Hartree energy  =  1.43013604120754E-01
    XC energy       = -3.43172539219529E+00
    Ewald energy    = -1.19408064693915E+01
    PspCore energy  =  5.55458769823281E+00
    Loc. psp. energy= -1.25936280162212E+00
    NL   psp  energy= -2.62315008793914E-01
    >>>>> Internal E= -7.78721277019465E+00

    -kT*entropy     = -1.78768600461035E-04
    >>>>>>>>> Etotal= -7.78739153879511E+00

 Other information on the energy :
    Total energy(eV)= -2.11905700430270E+02 ; Band energy (Ha)=  -1.5075905232E+00
--------------------------------------------------------------------------------

 Cartesian components of stress tensor (hartree/bohr^3)
  sigma(1 1)= -2.80287713E-03  sigma(3 2)=  0.00000000E+00
  sigma(2 2)= -2.80287713E-03  sigma(3 1)=  0.00000000E+00
  sigma(3 3)= -4.96706803E-03  sigma(2 1)=  0.00000000E+00

-Cartesian components of stress tensor (GPa)         [Pressure=  1.0369E+02 GPa]
- sigma(1 1)= -8.24634782E+01  sigma(3 2)=  0.00000000E+00
- sigma(2 2)= -8.24634782E+01  sigma(3 1)=  0.00000000E+00
- sigma(3 3)= -1.46136162E+02  sigma(2 1)=  0.00000000E+00

================================================================================
== DATASET  2 ==================================================================
-   nproc =    1

 mkfilename : getwfk/=0, take file _WFK from output of DATASET   1.

 Exchange-correlation functional for the present dataset will be:
  LDA: new Teter (4/93) with spin-polarized option - ixc=1
 Citation for XC functional:
  S. Goedecker, M. Teter, J. Huetter, PRB 54, 1703 (1996)

 Real(R)+Recip(G) space primitive vectors, cartesian coordinates (Bohr,Bohr^-1):
 R(1)=  5.5762039  0.0000000  0.0000000  G(1)=  0.1793335  0.1035382  0.0000000
 R(2)= -2.7881019  4.8291342  0.0000000  G(2)=  0.0000000  0.2070765  0.0000000
 R(3)=  0.0000000  0.0000000  8.8543118  G(3)=  0.0000000  0.0000000  0.1129393
 Unit cell volume ucvol=  2.3843101E+02 bohr^3
 Angles (23,13,12)=  9.00000000E+01  9.00000000E+01  1.20000000E+02 degrees
 setup1 : take into account q-point for computing boxcut.

 getcut: wavevector=  0.0000  0.0000  0.0000  ngfft=   8   8  12
         ecut(hartree)=      2.000   => boxcut(ratio)=   2.12886
--------------------------------------------------------------------------------

-inwffil : will read wavefunctions from disk file t72o_DS1_WFK
- newkpt: read input wf with ikpt,npw=   1      18, make ikpt,npw=   1      35
- newkpt: read input wf with ikpt,npw=   2      17, make ikpt,npw=   2      34
- newkpt: read input wf with ikpt,npw=   2      17, make ikpt,npw=   3      34
- newkpt: read input wf with ikpt,npw=   2      17, make ikpt,npw=   4      34
- newkpt: read input wf with ikpt,npw=   3      30, make ikpt,npw=   5      30
- newkpt: read input wf with ikpt,npw=   4      34, make ikpt,npw=   6      34
- newkpt: read input wf with ikpt,npw=   4      34, make ikpt,npw=   7      34
- newkpt: read input wf with ikpt,npw=   4      34, make ikpt,npw=   8      34
- newkpt: read input wf with ikpt,npw=   5      15, make ikpt,npw=   9      30
- newkpt: read input wf with ikpt,npw=   6      16, make ikpt,npw=  10      32
- newkpt: read input wf with ikpt,npw=   6      16, make ikpt,npw=  11      32
- newkpt: read input wf with ikpt,npw=   6      16, make ikpt,npw=  12      32
- newkpt: read input wf with ikpt,npw=   3      30, make ikpt,npw=  13      30
- newkpt: read input wf with ikpt,npw=   4      34, make ikpt,npw=  14      34
- newkpt: read input wf with ikpt,npw=   4      34, make ikpt,npw=  15      34
- newkpt: read input wf with ikpt,npw=   4      34, make ikpt,npw=  16      34


 ==>  initialize data related to q vector <== 

 The list of irreducible perturbations for this q vector is:
    1)    idir= 1    ipert=   1
    2)    idir= 3    ipert=   1
    3)    idir= 1    ipert=   2
    4)    idir= 3    ipert=   2

================================================================================

--------------------------------------------------------------------------------
 Perturbation wavevector (in red.coord.)   0.000000  0.000000  0.000000
 Perturbation : displacement of atom   1   along direction   1
 Found     2 symmetries that leave the perturbation invariant.
 symkpt : the number of k-points, thanks to the symmetries,
 is reduced to    12 .

--------------------------------------------------------------------------------

-inwffil : will read wavefunctions from disk file t72o_DS1_WFK
- newkpt: read input wf with ikpt,npw=   1      18, make ikpt,npw=   1      35
- newkpt: read input wf with ikpt,npw=   2      17, make ikpt,npw=   2      34
- newkpt: read input wf with ikpt,npw=   2      17, make ikpt,npw=   3      34
- newkpt: read input wf with ikpt,npw=   2      17, make ikpt,npw=   4      34
- newkpt: read input wf with ikpt,npw=   3      30, make ikpt,npw=   5      30
- newkpt: read input wf with ikpt,npw=   4      34, make ikpt,npw=   6      34
- newkpt: read input wf with ikpt,npw=   4      34, make ikpt,npw=   7      34
- newkpt: read input wf with ikpt,npw=   4      34, make ikpt,npw=   8      34
- newkpt: read input wf with ikpt,npw=   5      15, make ikpt,npw=   9      30
- newkpt: read input wf with ikpt,npw=   6      16, make ikpt,npw=  10      32
- newkpt: read input wf with ikpt,npw=   6      16, make ikpt,npw=  11      32
- newkpt: read input wf with ikpt,npw=   6      16, make ikpt,npw=  12      32

--------------------------------------------------------------------------------

-inwffil : will read wavefunctions from disk file t72o_DS1_WFK
- newkpt: read input wf with ikpt,npw=   1      18, make ikpt,npw=   1      35
- newkpt: read input wf with ikpt,npw=   2      17, make ikpt,npw=   2      34
- newkpt: read input wf with ikpt,npw=   2      17, make ikpt,npw=   3      34
- newkpt: read input wf with ikpt,npw=   2      17, make ikpt,npw=   4      34
- newkpt: read input wf with ikpt,npw=   3      30, make ikpt,npw=   5      30
- newkpt: read input wf with ikpt,npw=   4      34, make ikpt,npw=   6      34
- newkpt: read input wf with ikpt,npw=   4      34, make ikpt,npw=   7      34
- newkpt: read input wf with ikpt,npw=   4      34, make ikpt,npw=   8      34
- newkpt: read input wf with ikpt,npw=   5      15, make ikpt,npw=   9      30
- newkpt: read input wf with ikpt,npw=   6      16, make ikpt,npw=  10      32
- newkpt: read input wf with ikpt,npw=   6      16, make ikpt,npw=  11      32
- newkpt: read input wf with ikpt,npw=   6      16, make ikpt,npw=  12      32

 loper3 : total number of electrons, from k and k+q
  fully or partially occupied states are    9.000000E+00 and    9.000000E+00.
 Initialisation of the first-order wave-functions :
  ireadwf=   0
P newkpt: treating      8 bands with npw=      35 for ikpt=   1 by node    0
P newkpt: treating      8 bands with npw=      34 for ikpt=   2 by node    0
P newkpt: treating      8 bands with npw=      34 for ikpt=   3 by node    0
P newkpt: treating      8 bands with npw=      34 for ikpt=   4 by node    0
P newkpt: treating      8 bands with npw=      30 for ikpt=   5 by node    0
P newkpt: treating      8 bands with npw=      34 for ikpt=   6 by node    0
P newkpt: treating      8 bands with npw=      34 for ikpt=   7 by node    0
P newkpt: treating      8 bands with npw=      34 for ikpt=   8 by node    0
P newkpt: treating      8 bands with npw=      30 for ikpt=   9 by node    0
P newkpt: treating      8 bands with npw=      32 for ikpt=  10 by node    0
P newkpt: treating      8 bands with npw=      32 for ikpt=  11 by node    0
P newkpt: treating      8 bands with npw=      32 for ikpt=  12 by node    0


     iter   2DEtotal(Ha)        deltaE(Ha) residm    vres2
-ETOT  1   2.6775119653801     -8.656E+00 6.998E-03 1.091E+01
 ETOT  2   2.4904623985367     -1.870E-01 5.381E-05 2.756E-01
 ETOT  3   2.4841255792035     -6.337E-03 1.269E-06 1.958E-02
 ETOT  4   2.4836104505059     -5.151E-04 7.830E-08 3.331E-05
 ETOT  5   2.4836099356834     -5.148E-07 1.804E-10 1.725E-07
 ETOT  6   2.4836099342276     -1.456E-09 7.887E-13 1.088E-09

 At SCF step    6       vres2   =  1.09E-09 < tolvrs=  1.00E-08 =>converged.
================================================================================

 ----iterations are completed or convergence reached----

 Mean square residual over all n,k,spin=  -2.5000E-02; max=  7.8871E-13
   0.0000  0.0000  0.0000    1  4.47873E-13 kpt; spin; max resid(k); each band:
  3.06E-13 4.37E-14 8.52E-15 4.48E-13 5.56E-14 2.21E-15-1.00E-01-1.00E-01
   0.5000  0.0000  0.0000    1  4.84618E-13 kpt; spin; max resid(k); each band:
  2.50E-14 4.85E-13 2.90E-14 2.14E-14 1.35E-13 4.13E-13-1.00E-01-1.00E-01
   0.0000  0.5000  0.0000    1  5.43994E-13 kpt; spin; max resid(k); each band:
  4.94E-13 5.44E-13 1.13E-14 2.69E-13 1.43E-14 2.96E-13-1.00E-01-1.00E-01
   0.5000  0.5000  0.0000    1  4.87712E-13 kpt; spin; max resid(k); each band:
  2.45E-14 4.88E-13 2.80E-14 2.19E-14 6.42E-14 4.10E-13-1.00E-01-1.00E-01
   0.0000  0.0000  0.2500    1  4.41088E-13 kpt; spin; max resid(k); each band:
  2.35E-13 9.70E-15 1.97E-13 2.50E-13 4.41E-13 3.23E-14-1.00E-01-1.00E-01
   0.5000  0.0000  0.2500    1  3.98443E-13 kpt; spin; max resid(k); each band:
  1.83E-14 3.11E-13 2.51E-13 6.32E-14 6.68E-14 3.98E-13-1.00E-01-1.00E-01
   0.0000  0.5000  0.2500    1  4.35298E-13 kpt; spin; max resid(k); each band:
  4.35E-13 1.24E-13 1.37E-13 6.11E-14 1.09E-13 1.14E-13-1.00E-01-1.00E-01
   0.5000  0.5000  0.2500    1  3.91765E-13 kpt; spin; max resid(k); each band:
  1.80E-14 3.12E-13 2.50E-13 6.35E-14 6.58E-14 3.92E-13-1.00E-01-1.00E-01
   0.0000  0.0000  0.5000    1  7.88709E-13 kpt; spin; max resid(k); each band:
  3.14E-13 2.97E-14 2.01E-15 1.40E-14 7.89E-13 3.05E-13-1.00E-01-1.00E-01
   0.5000  0.0000  0.5000    1  3.10808E-13 kpt; spin; max resid(k); each band:
  6.22E-15 3.11E-13 1.16E-15 1.25E-13 4.25E-14 1.27E-14-1.00E-01-1.00E-01
   0.0000  0.5000  0.5000    1  1.96018E-13 kpt; spin; max resid(k); each band:
  4.17E-15 1.96E-13 5.23E-14 1.24E-14 1.55E-15 6.98E-15-1.00E-01-1.00E-01
   0.5000  0.5000  0.5000    1  3.19424E-13 kpt; spin; max resid(k); each band:
  6.00E-15 3.19E-13 1.25E-15 1.19E-13 4.22E-14 1.25E-14-1.00E-01-1.00E-01

 Thirteen components of 2nd-order total energy (hartree) are
 1,2,3: 0th-order hamiltonian combined with 1st-order wavefunctions
     kin0=   7.40373737E+00 eigvalue=   1.20287255E+00  local=  -1.32988980E+00
 4,5,6: 1st-order hamiltonian combined with 1st and 0th-order wfs
 loc psp =  -1.61988587E+01  Hartree=   1.26063344E+00     xc=  -7.92622821E-01
 note that "loc psp" includes a xc core correction that could be resolved
 7,8,9: eventually, occupation + non-local contributions
    edocc=   1.47646918E+00     enl0=  -3.71272566E-01   enl1=  -1.50099830E+00
 1-9 gives the relaxation energy (to be shifted if some occ is /=2.0)
   erelax=  -8.84992965E+00
 10,11,12 Non-relaxation  contributions : frozen-wavefunctions and Ewald
 fr.local=   1.00430523E+01 fr.nonlo=   6.55187756E-01  Ewald=   1.70515005E+00
 13,14 Frozen wf xc core corrections (1) and (2)
 frxc 1  =  -2.01285290E+00  frxc 2 =   9.43002343E-01
 Resulting in :
 2DEtotal=    0.2483609934E+01 Ha. Also 2DEtotal=    0.675824632788E+02 eV
    (2DErelax=   -8.8499296470E+00 Ha. 2DEnonrelax=    1.1333539581E+01 Ha)
    (  non-var. 2DEtotal :    2.4836110865E+00 Ha)


--------------------------------------------------------------------------------
 Perturbation wavevector (in red.coord.)   0.000000  0.000000  0.000000
 Perturbation : displacement of atom   1   along direction   2
 Found     2 symmetries that leave the perturbation invariant.
 symkpt : the number of k-points, thanks to the symmetries,
 is reduced to    12 .

--------------------------------------------------------------------------------

-inwffil : will read wavefunctions from disk file t72o_DS1_WFK
- newkpt: read input wf with ikpt,npw=   1      18, make ikpt,npw=   1      35
- newkpt: read input wf with ikpt,npw=   2      17, make ikpt,npw=   2      34
- newkpt: read input wf with ikpt,npw=   2      17, make ikpt,npw=   3      34
- newkpt: read input wf with ikpt,npw=   2      17, make ikpt,npw=   4      34
- newkpt: read input wf with ikpt,npw=   3      30, make ikpt,npw=   5      30
- newkpt: read input wf with ikpt,npw=   4      34, make ikpt,npw=   6      34
- newkpt: read input wf with ikpt,npw=   4      34, make ikpt,npw=   7      34
- newkpt: read input wf with ikpt,npw=   4      34, make ikpt,npw=   8      34
- newkpt: read input wf with ikpt,npw=   5      15, make ikpt,npw=   9      30
- newkpt: read input wf with ikpt,npw=   6      16, make ikpt,npw=  10      32
- newkpt: read input wf with ikpt,npw=   6      16, make ikpt,npw=  11      32
- newkpt: read input wf with ikpt,npw=   6      16, make ikpt,npw=  12      32

--------------------------------------------------------------------------------

-inwffil : will read wavefunctions from disk file t72o_DS1_WFK
- newkpt: read input wf with ikpt,npw=   1      18, make ikpt,npw=   1      35
- newkpt: read input wf with ikpt,npw=   2      17, make ikpt,npw=   2      34
- newkpt: read input wf with ikpt,npw=   2      17, make ikpt,npw=   3      34
- newkpt: read input wf with ikpt,npw=   2      17, make ikpt,npw=   4      34
- newkpt: read input wf with ikpt,npw=   3      30, make ikpt,npw=   5      30
[...]
                       0.000000  0.000000
                       2.000000  2.000000  2.000000  2.000000  2.000000  0.000000
                       0.000000  0.000000
                       2.000000  2.000000  2.000000  2.000000  2.000000  0.000000
                       0.000000  0.000000
                       2.000000  2.000000  2.000000  2.000000  2.000000  0.000000
                       0.000000  0.000000
                       2.000000  2.000000  2.000000  0.000000  0.000000  0.000000
                       0.000000  0.000000
                       2.000000  2.000000  2.000000  2.000000  1.438398  0.000000
                       0.000000  0.000000
                       2.000000  2.000000  2.000000  2.000000  1.438398  0.000000
                       0.000000  0.000000
                       2.000000  2.000000  2.000000  2.000000  1.438398  0.000000
                       0.000000  0.000000
                       2.000000  2.000000  2.000000  0.000000  0.000000  0.000000
                       0.000000  0.000000
                       2.000000  2.000000  2.000000  2.000000  2.000000  0.000000
                       0.000000  0.000000
                       2.000000  2.000000  2.000000  2.000000  2.000000  0.000000
                       0.000000  0.000000
                       2.000000  2.000000  2.000000  2.000000  2.000000  0.000000
                       0.000000  0.000000
              occ6     2.000000  2.000000  2.000000  0.000000  0.000000  0.000000
                       0.000000  0.000000
                       2.000000  2.000000  2.000000  2.000000  2.000000  0.561602
                       0.000000  0.000000
                       2.000000  2.000000  2.000000  2.000000  2.000000  0.561602
                       0.000000  0.000000
                       2.000000  2.000000  2.000000  2.000000  2.000000  0.561602
                       0.000000  0.000000
                       2.000000  2.000000  2.000000  0.000000  0.000000  0.000000
                       0.000000  0.000000
                       2.000000  2.000000  2.000000  2.000000  2.000000  0.000000
                       0.000000  0.000000
                       2.000000  2.000000  2.000000  2.000000  2.000000  0.000000
                       0.000000  0.000000
                       2.000000  2.000000  2.000000  2.000000  2.000000  0.000000
                       0.000000  0.000000
                       2.000000  2.000000  2.000000  0.000000  0.000000  0.000000
                       0.000000  0.000000
                       2.000000  2.000000  2.000000  2.000000  1.438398  0.000000
                       0.000000  0.000000
                       2.000000  2.000000  2.000000  2.000000  1.438398  0.000000
                       0.000000  0.000000
                       2.000000  2.000000  2.000000  2.000000  1.438398  0.000000
                       0.000000  0.000000
                       2.000000  2.000000  2.000000  0.000000  0.000000  0.000000
                       0.000000  0.000000
                       2.000000  2.000000  2.000000  2.000000  2.000000  0.000000
                       0.000000  0.000000
                       2.000000  2.000000  2.000000  2.000000  2.000000  0.000000
                       0.000000  0.000000
                       2.000000  2.000000  2.000000  2.000000  2.000000  0.000000
                       0.000000  0.000000
              occ7     2.000000  2.000000  2.000000  0.000000  0.000000  0.000000
                       0.000000  0.000000
                       2.000000  2.000000  2.000000  2.000000  2.000000  0.561616
                       0.000000  0.000000
                       2.000000  2.000000  2.000000  2.000000  2.000000  0.561616
                       0.000000  0.000000
                       2.000000  2.000000  2.000000  2.000000  2.000000  0.561616
                       0.000000  0.000000
                       2.000000  2.000000  2.000000  0.000000  0.000000  0.000000
                       0.000000  0.000000
                       2.000000  2.000000  2.000000  2.000000  2.000000  0.000000
                       0.000000  0.000000
                       2.000000  2.000000  2.000000  2.000000  2.000000  0.000000
                       0.000000  0.000000
                       2.000000  2.000000  2.000000  2.000000  2.000000  0.000000
                       0.000000  0.000000
                       2.000000  2.000000  2.000000  0.000000  0.000000  0.000000
                       0.000000  0.000000
                       2.000000  2.000000  2.000000  2.000000  1.438384  0.000000
                       0.000000  0.000000
                       2.000000  2.000000  2.000000  2.000000  1.438384  0.000000
                       0.000000  0.000000
                       2.000000  2.000000  2.000000  2.000000  1.438384  0.000000
                       0.000000  0.000000
                       2.000000  2.000000  2.000000  0.000000  0.000000  0.000000
                       0.000000  0.000000
                       2.000000  2.000000  2.000000  2.000000  2.000000  0.000000
                       0.000000  0.000000
                       2.000000  2.000000  2.000000  2.000000  2.000000  0.000000
                       0.000000  0.000000
                       2.000000  2.000000  2.000000  2.000000  2.000000  0.000000
                       0.000000  0.000000
              occ12    2.000000  2.000000  2.000000  0.000000  0.000000  0.000000
                       0.000000  0.000000
                       2.000000  2.000000  2.000000  2.000000  2.000000  0.561616
                       0.000000  0.000000
                       2.000000  2.000000  2.000000  2.000000  2.000000  0.561616
                       0.000000  0.000000
                       2.000000  2.000000  2.000000  2.000000  2.000000  0.561616
                       0.000000  0.000000
                       2.000000  2.000000  2.000000  0.000000  0.000000  0.000000
                       0.000000  0.000000
                       2.000000  2.000000  2.000000  2.000000  2.000000  0.000000
                       0.000000  0.000000
                       2.000000  2.000000  2.000000  2.000000  2.000000  0.000000
                       0.000000  0.000000
                       2.000000  2.000000  2.000000  2.000000  2.000000  0.000000
                       0.000000  0.000000
                       2.000000  2.000000  2.000000  0.000000  0.000000  0.000000
                       0.000000  0.000000
                       2.000000  2.000000  2.000000  2.000000  1.438384  0.000000
                       0.000000  0.000000
                       2.000000  2.000000  2.000000  2.000000  1.438384  0.000000
                       0.000000  0.000000
                       2.000000  2.000000  2.000000  2.000000  1.438384  0.000000
                       0.000000  0.000000
                       2.000000  2.000000  2.000000  0.000000  0.000000  0.000000
                       0.000000  0.000000
                       2.000000  2.000000  2.000000  2.000000  2.000000  0.000000
                       0.000000  0.000000
                       2.000000  2.000000  2.000000  2.000000  2.000000  0.000000
                       0.000000  0.000000
                       2.000000  2.000000  2.000000  2.000000  2.000000  0.000000
                       0.000000  0.000000
           occopt           7
        optdriver1          0
        optdriver2          1
        optdriver3          1
        optdriver4          1
        optdriver5          1
        optdriver6          1
        optdriver7          0
        optdriver8          1
        optdriver9          1
        optdriver10         1
        optdriver11         1
        optdriver12         1
          prepgkk           1
           prtgkk1          0
           prtgkk2          0
           prtgkk3          0
           prtgkk4          0
           prtgkk5          0
           prtgkk6          0
           prtgkk7          0
           prtgkk8          1
           prtgkk9          1
           prtgkk10         1
           prtgkk11         1
           prtgkk12         1
            prtwf1          1
            prtwf2          0
            prtwf3          0
            prtwf4          0
            prtwf5          0
            prtwf6          0
            prtwf7          1
            prtwf8          0
            prtwf9          0
            prtwf10         0
            prtwf11         0
            prtwf12         0
              qpt1     0.00000000E+00  0.00000000E+00  0.00000000E+00
              qpt2     0.00000000E+00  0.00000000E+00  0.00000000E+00
              qpt3     5.00000000E-01  0.00000000E+00  0.00000000E+00
              qpt4     0.00000000E+00  0.00000000E+00  5.00000000E-01
              qpt5     5.00000000E-01  0.00000000E+00  5.00000000E-01
              qpt6     0.00000000E+00  0.00000000E+00  0.00000000E+00
              qpt7     0.00000000E+00  0.00000000E+00  0.00000000E+00
              qpt8     0.00000000E+00  0.00000000E+00  0.00000000E+00
              qpt9     5.00000000E-01  0.00000000E+00  0.00000000E+00
              qpt10    0.00000000E+00  0.00000000E+00  5.00000000E-01
              qpt11    5.00000000E-01  0.00000000E+00  5.00000000E-01
              qpt12    0.00000000E+00  0.00000000E+00  0.00000000E+00
          rfatpol           1       2
            rfdir           1       1       1
           rfelfd1          0
           rfelfd2          0
           rfelfd3          0
           rfelfd4          0
           rfelfd5          0
           rfelfd6          2
           rfelfd7          0
           rfelfd8          0
           rfelfd9          0
           rfelfd10         0
           rfelfd11         0
           rfelfd12         2
           rfphon1          0
           rfphon2          1
           rfphon3          1
           rfphon4          1
           rfphon5          1
           rfphon6          0
           rfphon7          0
           rfphon8          1
           rfphon9          1
           rfphon10         1
           rfphon11         1
           rfphon12         0
            rprim      1.0000000000E+00  0.0000000000E+00  0.0000000000E+00
                      -5.0000000000E-01  8.6602540378E-01  0.0000000000E+00
                       6.1232339957E-17  1.0605752387E-16  1.0000000000E+00
          spgroup         187
           strten1    -2.8028771264E-03 -2.8028771264E-03 -4.9670680322E-03
                       0.0000000000E+00  0.0000000000E+00  0.0000000000E+00
           strten2     0.0000000000E+00  0.0000000000E+00  0.0000000000E+00
                       0.0000000000E+00  0.0000000000E+00  0.0000000000E+00
           strten3     0.0000000000E+00  0.0000000000E+00  0.0000000000E+00
                       0.0000000000E+00  0.0000000000E+00  0.0000000000E+00
           strten4     0.0000000000E+00  0.0000000000E+00  0.0000000000E+00
                       0.0000000000E+00  0.0000000000E+00  0.0000000000E+00
           strten5     0.0000000000E+00  0.0000000000E+00  0.0000000000E+00
                       0.0000000000E+00  0.0000000000E+00  0.0000000000E+00
           strten7    -2.8028784332E-03 -2.8028784332E-03 -4.9670713878E-03
                       0.0000000000E+00  0.0000000000E+00  0.0000000000E+00
           symrel      1  0  0   0  1  0   0  0  1       0 -1  0  -1  0  0   0  0 -1
                      -1 -1  0   1  0  0   0  0 -1      -1  0  0   1  1  0   0  0  1
                       0  1  0  -1 -1  0   0  0  1       1  1  0   0 -1  0   0  0 -1
                       1  0  0   0  1  0   0  0 -1       0 -1  0  -1  0  0   0  0  1
                      -1 -1  0   1  0  0   0  0  1      -1  0  0   1  1  0   0  0 -1
                       0  1  0  -1 -1  0   0  0 -1       1  1  0   0 -1  0   0  0  1
           tolvrs1     0.00000000E+00
           tolvrs2     1.00000000E-08
           tolvrs3     1.00000000E-08
           tolvrs4     1.00000000E-08
           tolvrs5     1.00000000E-08
           tolvrs6     0.00000000E+00
           tolvrs7     0.00000000E+00
           tolvrs8     0.00000000E+00
           tolvrs9     0.00000000E+00
           tolvrs10    0.00000000E+00
           tolvrs11    0.00000000E+00
           tolvrs12    0.00000000E+00
           tolwfr1     1.00000000E-14
           tolwfr2     0.00000000E+00
           tolwfr3     0.00000000E+00
           tolwfr4     0.00000000E+00
           tolwfr5     0.00000000E+00
           tolwfr6     1.00000000E-14
           tolwfr7     1.00000000E-14
           tolwfr8     1.00000000E-14
           tolwfr9     1.00000000E-14
           tolwfr10    1.00000000E-14
           tolwfr11    1.00000000E-14
           tolwfr12    1.00000000E-14
           tsmear      1.00000000E-03 Hartree
            typat      1  2
              wtk1       0.06250    0.18750    0.12500    0.37500    0.06250    0.18750
              wtk2       0.06250    0.06250    0.06250    0.06250    0.06250    0.06250
                         0.06250    0.06250    0.06250    0.06250    0.06250    0.06250
                         0.06250    0.06250    0.06250    0.06250
              wtk3       0.06250    0.06250    0.06250    0.06250    0.06250    0.06250
                         0.06250    0.06250    0.06250    0.06250    0.06250    0.06250
                         0.06250    0.06250    0.06250    0.06250
              wtk4       0.06250    0.06250    0.06250    0.06250    0.06250    0.06250
                         0.06250    0.06250    0.06250    0.06250    0.06250    0.06250
                         0.06250    0.06250    0.06250    0.06250
              wtk5       0.06250    0.06250    0.06250    0.06250    0.06250    0.06250
                         0.06250    0.06250    0.06250    0.06250    0.06250    0.06250
                         0.06250    0.06250    0.06250    0.06250
              wtk6       0.06250    0.06250    0.06250    0.06250    0.06250    0.06250
                         0.06250    0.06250    0.06250    0.06250    0.06250    0.06250
                         0.06250    0.06250    0.06250    0.06250
              wtk7       0.06250    0.06250    0.06250    0.06250    0.06250    0.06250
                         0.06250    0.06250    0.06250    0.06250    0.06250    0.06250
                         0.06250    0.06250    0.06250    0.06250
              wtk8       0.06250    0.06250    0.06250    0.06250    0.06250    0.06250
                         0.06250    0.06250    0.06250    0.06250    0.06250    0.06250
                         0.06250    0.06250    0.06250    0.06250
              wtk9       0.06250    0.06250    0.06250    0.06250    0.06250    0.06250
                         0.06250    0.06250    0.06250    0.06250    0.06250    0.06250
                         0.06250    0.06250    0.06250    0.06250
              wtk10      0.06250    0.06250    0.06250    0.06250    0.06250    0.06250
                         0.06250    0.06250    0.06250    0.06250    0.06250    0.06250
                         0.06250    0.06250    0.06250    0.06250
              wtk11      0.06250    0.06250    0.06250    0.06250    0.06250    0.06250
                         0.06250    0.06250    0.06250    0.06250    0.06250    0.06250
                         0.06250    0.06250    0.06250    0.06250
              wtk12      0.06250    0.06250    0.06250    0.06250    0.06250    0.06250
                         0.06250    0.06250    0.06250    0.06250    0.06250    0.06250
                         0.06250    0.06250    0.06250    0.06250
           xangst      0.0000000000E+00  0.0000000000E+00  0.0000000000E+00
                       6.1345584130E-16  1.7036451743E+00  2.3427500000E+00
            xcart      0.0000000000E+00  0.0000000000E+00  0.0000000000E+00
                       1.1592635347E-15  3.2194228071E+00  4.4271558978E+00
             xred      0.0000000000E+00  0.0000000000E+00  0.0000000000E+00
                       3.3333333333E-01  6.6666666667E-01  5.0000000000E-01
            znucl       22.00000   41.00000

================================================================================


- Timing analysis has been suppressed with timopt=0



================================================================================

 Suggested references for the acknowledgment of ABINIT usage.

 The users of ABINIT have little formal obligations with respect to the ABINIT group
 (those specified in the GNU General Public License, http://www.gnu.org/copyleft/gpl.txt).
 However, it is common practice in the scientific literature,
 to acknowledge the efforts of people that have made the research possible.
 In this spirit, please find below suggested citations of work written by ABINIT developers,
 corresponding to implementations inside of ABINIT that you have used in the present run.
 Note also that it will be of great value to readers of publications presenting these results,
 to read papers enabling them to understand the theoretical formalism and details
 of the ABINIT implementation.
 For information on why they are suggested, see also http://www.abinit.org/about/?text=acknowledgments.

 [1] First-principles responses of solids to atomic displacements and homogeneous electric fields:,
 implementation of a conjugate-gradient algorithm. X. Gonze, Phys. Rev. B55, 10337 (1997).
 Comment : Non-vanishing rfphon and/or rfelfd, in the norm-conserving case.

 [2] Dynamical matrices, Born effective charges, dielectric permittivity tensors, and ,
 interatomic force constants from density-functional perturbation theory,
 X. Gonze and C. Lee, Phys. Rev. B55, 10355 (1997).
 Comment : Non-vanishing rfphon and/or rfelfd, in the norm-conserving case.

 [3] Ab initio pseudopotentials for electronic structure calculations of poly-atomic systems, 
 using density-functional theory.
 M. Fuchs, M. Scheffler, Comput. Phys. Commun. 119, 67 (1999).
 Comment : Some pseudopotential generated using the FHI code were used.

 [4] ABINIT : First-principles approach of materials and nanosystem properties.
 X. Gonze, B. Amadon, P.-M. Anglade, J.-M. Beuken, F. Bottin, P. Boulanger, F. Bruneval,
 D. Caliste, R. Caracas, M. Cote, T. Deutsch, L. Genovese, Ph. Ghosez, M. Giantomassi
 S. Goedecker, D.R. Hamann, P. Hermet, F. Jollet, G. Jomard, S. Leroux, M. Mancini, S. Mazevet,
 M.J.T. Oliveira, G. Onida, Y. Pouillon, T. Rangel, G.-M. Rignanese, D. Sangalli, R. Shaltaf,
 M. Torrent, M.J. Verstraete, G. Zerah, J.W. Zwanziger
 Computer Phys. Comm. 180, 2582-2615 (2009).
 Comment : the third generic paper describing the ABINIT project.
 Note that a version of this paper, that is not formatted for Computer Phys. Comm. 
 is available at http://www.abinit.org/about/ABINIT_CPC_v10.pdf .
 The licence allows the authors to put it on the Web.

 [5] A brief introduction to the ABINIT software package.
 X. Gonze, G.-M. Rignanese, M. Verstraete, J.-M. Beuken, Y. Pouillon, R. Caracas, F. Jollet,
 M. Torrent, G. Zerah, M. Mikami, Ph. Ghosez, M. Veithen, J.-Y. Raty, V. Olevano, F. Bruneval,
 L. Reining, R. Godby, G. Onida, D.R. Hamann, and D.C. Allan.
 Z. Kristallogr. 220, 558-562 (2005).
 Comment : the second generic paper describing the ABINIT project. Note that this paper
 should be cited especially if you are using the GW part of ABINIT, as several authors
 of this part are not in the list of authors of the first or third paper.
 The .pdf of the latter paper is available at http://www.abinit.org/about/zfk_0505-06_558-562.pdf.
 Note that it should not redistributed (Copyright by Oldenburg Wissenshaftverlag,
 the licence allows the authors to put it on the Web).
-
- Proc.   0 individual time (sec): cpu=         11.4  wall=         11.4

================================================================================

 Calculation completed.
.Delivered 1150 WARNINGs and   0 COMMENTs to log file.
+Overall time at end (sec) : cpu=         11.4  wall=         11.4
