
 **** DERIVATIVE DATABASE ****    
+DDB, Version number    100401

 Ti DDB file for elphon calculation                                                                                                                                                                                                                                      

    usepaw         0
     natom         2
      nkpt        64
    nsppol         1
      nsym        24
    ntypat         1
    occopt         7
     nband        10
     acell  0.55762038729190D+01  0.55762038729190D+01  0.88543117956357D+01
       amu  0.47880000000000D+02
   dilatmx  0.10000000000000D+01
      ecut  0.40000000000000D+01
    ecutsm  0.00000000000000D+00
     intxc         0
      iscf         7
       ixc         1
       kpt  0.00000000000000D+00  0.00000000000000D+00  0.00000000000000D+00
            0.25000000000000D+00  0.00000000000000D+00  0.00000000000000D+00
            0.50000000000000D+00  0.00000000000000D+00  0.00000000000000D+00
           -0.25000000000000D+00  0.00000000000000D+00  0.00000000000000D+00
            0.00000000000000D+00  0.25000000000000D+00  0.00000000000000D+00
            0.25000000000000D+00  0.25000000000000D+00  0.00000000000000D+00
            0.50000000000000D+00  0.25000000000000D+00  0.00000000000000D+00
           -0.25000000000000D+00  0.25000000000000D+00  0.00000000000000D+00
            0.00000000000000D+00  0.50000000000000D+00  0.00000000000000D+00
            0.25000000000000D+00  0.50000000000000D+00  0.00000000000000D+00
            0.50000000000000D+00  0.50000000000000D+00  0.00000000000000D+00
           -0.25000000000000D+00  0.50000000000000D+00  0.00000000000000D+00
            0.00000000000000D+00 -0.25000000000000D+00  0.00000000000000D+00
            0.25000000000000D+00 -0.25000000000000D+00  0.00000000000000D+00
            0.50000000000000D+00 -0.25000000000000D+00  0.00000000000000D+00
           -0.25000000000000D+00 -0.25000000000000D+00  0.00000000000000D+00
            0.00000000000000D+00  0.00000000000000D+00  0.25000000000000D+00
            0.25000000000000D+00  0.00000000000000D+00  0.25000000000000D+00
            0.50000000000000D+00  0.00000000000000D+00  0.25000000000000D+00
           -0.25000000000000D+00  0.00000000000000D+00  0.25000000000000D+00
            0.00000000000000D+00  0.25000000000000D+00  0.25000000000000D+00
            0.25000000000000D+00  0.25000000000000D+00  0.25000000000000D+00
            0.50000000000000D+00  0.25000000000000D+00  0.25000000000000D+00
           -0.25000000000000D+00  0.25000000000000D+00  0.25000000000000D+00
            0.00000000000000D+00  0.50000000000000D+00  0.25000000000000D+00
            0.25000000000000D+00  0.50000000000000D+00  0.25000000000000D+00
            0.50000000000000D+00  0.50000000000000D+00  0.25000000000000D+00
           -0.25000000000000D+00  0.50000000000000D+00  0.25000000000000D+00
            0.00000000000000D+00 -0.25000000000000D+00  0.25000000000000D+00
            0.25000000000000D+00 -0.25000000000000D+00  0.25000000000000D+00
            0.50000000000000D+00 -0.25000000000000D+00  0.25000000000000D+00
           -0.25000000000000D+00 -0.25000000000000D+00  0.25000000000000D+00
            0.00000000000000D+00  0.00000000000000D+00  0.50000000000000D+00
            0.25000000000000D+00  0.00000000000000D+00  0.50000000000000D+00
            0.50000000000000D+00  0.00000000000000D+00  0.50000000000000D+00
           -0.25000000000000D+00  0.00000000000000D+00  0.50000000000000D+00
            0.00000000000000D+00  0.25000000000000D+00  0.50000000000000D+00
            0.25000000000000D+00  0.25000000000000D+00  0.50000000000000D+00
            0.50000000000000D+00  0.25000000000000D+00  0.50000000000000D+00
           -0.25000000000000D+00  0.25000000000000D+00  0.50000000000000D+00
            0.00000000000000D+00  0.50000000000000D+00  0.50000000000000D+00
            0.25000000000000D+00  0.50000000000000D+00  0.50000000000000D+00
            0.50000000000000D+00  0.50000000000000D+00  0.50000000000000D+00
           -0.25000000000000D+00  0.50000000000000D+00  0.50000000000000D+00
            0.00000000000000D+00 -0.25000000000000D+00  0.50000000000000D+00
            0.25000000000000D+00 -0.25000000000000D+00  0.50000000000000D+00
            0.50000000000000D+00 -0.25000000000000D+00  0.50000000000000D+00
           -0.25000000000000D+00 -0.25000000000000D+00  0.50000000000000D+00
            0.00000000000000D+00  0.00000000000000D+00 -0.25000000000000D+00
            0.25000000000000D+00  0.00000000000000D+00 -0.25000000000000D+00
            0.50000000000000D+00  0.00000000000000D+00 -0.25000000000000D+00
           -0.25000000000000D+00  0.00000000000000D+00 -0.25000000000000D+00
            0.00000000000000D+00  0.25000000000000D+00 -0.25000000000000D+00
            0.25000000000000D+00  0.25000000000000D+00 -0.25000000000000D+00
            0.50000000000000D+00  0.25000000000000D+00 -0.25000000000000D+00
           -0.25000000000000D+00  0.25000000000000D+00 -0.25000000000000D+00
            0.00000000000000D+00  0.50000000000000D+00 -0.25000000000000D+00
            0.25000000000000D+00  0.50000000000000D+00 -0.25000000000000D+00
            0.50000000000000D+00  0.50000000000000D+00 -0.25000000000000D+00
           -0.25000000000000D+00  0.50000000000000D+00 -0.25000000000000D+00
            0.00000000000000D+00 -0.25000000000000D+00 -0.25000000000000D+00
            0.25000000000000D+00 -0.25000000000000D+00 -0.25000000000000D+00
            0.50000000000000D+00 -0.25000000000000D+00 -0.25000000000000D+00
           -0.25000000000000D+00 -0.25000000000000D+00 -0.25000000000000D+00
    kptnrm  0.10000000000000D+01
     ngfft        10   10   16
    nspden         1
   nspinor         1
       occ  0.20000000000000D+01  0.20000000000000D+01  0.20000000000000D+01
            0.00000000000000D+00  0.00000000000000D+00  0.00000000000000D+00
            0.00000000000000D+00  0.00000000000000D+00  0.00000000000000D+00
            0.00000000000000D+00
     rprim  0.10000000000000D+01  0.00000000000000D+00  0.00000000000000D+00
           -0.50000000000000D+00  0.86602540378444D+00  0.00000000000000D+00
            0.61232339957368D-16  0.10605752387249D-15  0.10000000000000D+01
     sciss  0.00000000000000D+00
    spinat  0.00000000000000D+00  0.00000000000000D+00  0.00000000000000D+00
            0.00000000000000D+00  0.00000000000000D+00  0.00000000000000D+00
    symafm         1    1    1    1    1    1    1    1    1    1    1    1
                   1    1    1    1    1    1    1    1    1    1    1    1
    symrel         1    0    0    0    1    0    0    0    1
                  -1    0    0    0   -1    0    0    0   -1
                   0    1    0    1    0    0    0    0    1
                   0   -1    0   -1    0    0    0    0   -1
                   1    1    0   -1    0    0    0    0    1
                  -1   -1    0    1    0    0    0    0   -1
                  -1    0    0    1    1    0    0    0    1
                   1    0    0   -1   -1    0    0    0   -1
                   0    1    0   -1   -1    0    0    0    1
                   0   -1    0    1    1    0    0    0   -1
                  -1   -1    0    0    1    0    0    0    1
                   1    1    0    0   -1    0    0    0   -1
                  -1    0    0    0   -1    0    0    0    1
                   1    0    0    0    1    0    0    0   -1
                   0   -1    0   -1    0    0    0    0    1
                   0    1    0    1    0    0    0    0   -1
                  -1   -1    0    1    0    0    0    0    1
                   1    1    0   -1    0    0    0    0   -1
                   1    0    0   -1   -1    0    0    0    1
                  -1    0    0    1    1    0    0    0   -1
                   0   -1    0    1    1    0    0    0    1
                   0    1    0   -1   -1    0    0    0   -1
                   1    1    0    0   -1    0    0    0    1
                  -1   -1    0    0    1    0    0    0   -1
     tnons  0.00000000000000D+00  0.00000000000000D+00  0.00000000000000D+00
            0.33333333333333D+00 -0.33333333333333D+00  0.50000000000000D+00
            0.33333333333333D+00 -0.33333333333333D+00  0.50000000000000D+00
            0.00000000000000D+00  0.00000000000000D+00  0.00000000000000D+00
            0.33333333333333D+00 -0.33333333333333D+00  0.50000000000000D+00
            0.00000000000000D+00  0.00000000000000D+00  0.00000000000000D+00
            0.00000000000000D+00  0.00000000000000D+00  0.00000000000000D+00
            0.33333333333333D+00 -0.33333333333333D+00  0.50000000000000D+00
            0.00000000000000D+00  0.00000000000000D+00  0.00000000000000D+00
            0.33333333333333D+00 -0.33333333333333D+00  0.50000000000000D+00
            0.33333333333333D+00 -0.33333333333333D+00  0.50000000000000D+00
            0.00000000000000D+00  0.00000000000000D+00  0.00000000000000D+00
            0.33333333333333D+00 -0.33333333333333D+00  0.50000000000000D+00
            0.00000000000000D+00  0.00000000000000D+00  0.00000000000000D+00
            0.00000000000000D+00  0.00000000000000D+00  0.00000000000000D+00
            0.33333333333333D+00 -0.33333333333333D+00  0.50000000000000D+00
            0.00000000000000D+00  0.00000000000000D+00  0.00000000000000D+00
            0.33333333333333D+00 -0.33333333333333D+00  0.50000000000000D+00
            0.33333333333333D+00 -0.33333333333333D+00  0.50000000000000D+00
            0.00000000000000D+00  0.00000000000000D+00  0.00000000000000D+00
            0.33333333333333D+00 -0.33333333333333D+00  0.50000000000000D+00
            0.00000000000000D+00  0.00000000000000D+00  0.00000000000000D+00
            0.00000000000000D+00  0.00000000000000D+00  0.00000000000000D+00
            0.33333333333333D+00 -0.33333333333333D+00  0.50000000000000D+00
    tolwfr  0.10000000000000D+01
   tphysel  0.00000000000000D+00
    tsmear  0.10000000000000D-02
     typat         1    1
       wtk  0.15625000000000D-01  0.15625000000000D-01  0.15625000000000D-01
            0.15625000000000D-01  0.15625000000000D-01  0.15625000000000D-01
            0.15625000000000D-01  0.15625000000000D-01  0.15625000000000D-01
            0.15625000000000D-01  0.15625000000000D-01  0.15625000000000D-01
            0.15625000000000D-01  0.15625000000000D-01  0.15625000000000D-01
            0.15625000000000D-01  0.15625000000000D-01  0.15625000000000D-01
            0.15625000000000D-01  0.15625000000000D-01  0.15625000000000D-01
            0.15625000000000D-01  0.15625000000000D-01  0.15625000000000D-01
            0.15625000000000D-01  0.15625000000000D-01  0.15625000000000D-01
            0.15625000000000D-01  0.15625000000000D-01  0.15625000000000D-01
            0.15625000000000D-01  0.15625000000000D-01  0.15625000000000D-01
            0.15625000000000D-01  0.15625000000000D-01  0.15625000000000D-01
            0.15625000000000D-01  0.15625000000000D-01  0.15625000000000D-01
            0.15625000000000D-01  0.15625000000000D-01  0.15625000000000D-01
            0.15625000000000D-01  0.15625000000000D-01  0.15625000000000D-01
            0.15625000000000D-01  0.15625000000000D-01  0.15625000000000D-01
            0.15625000000000D-01  0.15625000000000D-01  0.15625000000000D-01
            0.15625000000000D-01  0.15625000000000D-01  0.15625000000000D-01
            0.15625000000000D-01  0.15625000000000D-01  0.15625000000000D-01
            0.15625000000000D-01  0.15625000000000D-01  0.15625000000000D-01
            0.15625000000000D-01  0.15625000000000D-01  0.15625000000000D-01
            0.15625000000000D-01
      xred  0.00000000000000D+00  0.00000000000000D+00  0.00000000000000D+00
            0.33333333333333D+00  0.66666666666667D+00  0.50000000000000D+00
     znucl  0.22000000000000D+02
      zion  0.40000000000000D+01
 
  Description of the potentials (KB energies)
  vrsio8 (for pseudopotentials)=100401
  usepaw =  0
  dimekb =  2       lmnmax=  2
  Atom type=    1   pspso=  0   nekb=   2
  iln lpsang iproj  ekb(:)
     1     1     1     9.1553737E-01  0.0000000E+00
     2     2     1     0.0000000E+00 -8.0156917E+00
 
 **** Database of total energy derivatives ****
 Number of data blocks=    4
  
 2nd derivatives (non-stat.)  - # elements :      64
 qpt  0.00000000E+00  0.00000000E+00  0.00000000E+00   1.0
   1   1   1   1  0.14951633646123D+01  0.00000000000000D+00
   2   1   1   1 -0.74758168230617D+00  0.00000000000000D+00
   3   1   1   1  0.41372453533898D-15  0.00000000000000D+00
   1   2   1   1 -0.14951620001292D+01 -0.38970609322007D-15
   2   2   1   1  0.74758100006460D+00  0.34225555187554D-16
   3   2   1   1 -0.41372453533898D-15 -0.21665608389685D-16
   2   4   1   1  0.00000000000000D+00  0.00000000000000D+00
   3   4   1   1  0.00000000000000D+00  0.00000000000000D+00
   1   1   2   1 -0.74758168230617D+00  0.00000000000000D+00
   2   1   2   1  0.14951633646123D+01  0.00000000000000D+00
   3   1   2   1 -0.60636889036379D-16  0.00000000000000D+00
   1   2   2   1  0.74758100006460D+00  0.34225555187554D-16
   2   2   2   1 -0.14951620001292D+01  0.66096305026726D-16
   3   2   2   1  0.60636889036379D-16 -0.55339216235541D-16
   1   4   2   1  0.00000000000000D+00  0.00000000000000D+00
   3   4   2   1  0.00000000000000D+00  0.00000000000000D+00
   1   1   3   1  0.41372453533898D-15  0.00000000000000D+00
   2   1   3   1 -0.60636889036379D-16  0.00000000000000D+00
   3   1   3   1  0.26413423327568D+02  0.00000000000000D+00
   1   2   3   1 -0.41372453533898D-15 -0.21665608389685D-16
   2   2   3   1  0.60636889036379D-16 -0.55339216235541D-16
   3   2   3   1 -0.26413421621292D+02 -0.45059746072319D-16
   1   4   3   1  0.00000000000000D+00  0.00000000000000D+00
   2   4   3   1  0.00000000000000D+00  0.00000000000000D+00
   1   1   1   2 -0.14951620001292D+01  0.38970609322007D-15
   2   1   1   2  0.74758100006460D+00 -0.34225555187554D-16
   3   1   1   2 -0.41372453533898D-15  0.21665608389685D-16
   1   2   1   2  0.14951633646123D+01  0.00000000000000D+00
   2   2   1   2 -0.74758168230617D+00  0.00000000000000D+00
   3   2   1   2  0.41372453533898D-15  0.00000000000000D+00
   2   4   1   2  0.00000000000000D+00  0.00000000000000D+00
   3   4   1   2  0.00000000000000D+00  0.00000000000000D+00
   1   1   2   2  0.74758100006460D+00 -0.34225555187554D-16
   2   1   2   2 -0.14951620001292D+01 -0.66096305026726D-16
   3   1   2   2  0.60636889036379D-16  0.55339216235541D-16
   1   2   2   2 -0.74758168230617D+00  0.00000000000000D+00
   2   2   2   2  0.14951633646123D+01  0.00000000000000D+00
   3   2   2   2 -0.60636889036379D-16  0.00000000000000D+00
   1   4   2   2  0.00000000000000D+00  0.00000000000000D+00
   3   4   2   2  0.00000000000000D+00  0.00000000000000D+00
   1   1   3   2 -0.41372453533898D-15  0.21665608389685D-16
   2   1   3   2  0.60636889036379D-16  0.55339216235541D-16
   3   1   3   2 -0.26413421621292D+02  0.45059746072319D-16
   1   2   3   2  0.41372453533898D-15  0.00000000000000D+00
   2   2   3   2 -0.60636889036379D-16  0.00000000000000D+00
   3   2   3   2  0.26413423327568D+02  0.00000000000000D+00
   1   4   3   2  0.00000000000000D+00  0.00000000000000D+00
   2   4   3   2  0.00000000000000D+00  0.00000000000000D+00
   2   1   1   4  0.00000000000000D+00  0.00000000000000D+00
   3   1   1   4  0.00000000000000D+00  0.00000000000000D+00
   2   2   1   4  0.00000000000000D+00  0.00000000000000D+00
   3   2   1   4  0.00000000000000D+00  0.00000000000000D+00
   3   4   1   4  0.00000000000000D+00  0.00000000000000D+00
   1   1   2   4  0.00000000000000D+00  0.00000000000000D+00
   3   1   2   4  0.00000000000000D+00  0.00000000000000D+00
   1   2   2   4  0.00000000000000D+00  0.00000000000000D+00
   3   2   2   4  0.00000000000000D+00  0.00000000000000D+00
   3   4   2   4  0.00000000000000D+00  0.00000000000000D+00
   1   1   3   4  0.00000000000000D+00  0.00000000000000D+00
   2   1   3   4  0.00000000000000D+00  0.00000000000000D+00
   1   2   3   4  0.00000000000000D+00  0.00000000000000D+00
   2   2   3   4  0.00000000000000D+00  0.00000000000000D+00
   1   4   3   4  0.00000000000000D+00  0.00000000000000D+00
   2   4   3   4  0.00000000000000D+00  0.00000000000000D+00
  
 2nd derivatives (non-stat.)  - # elements :      36
 qpt  5.00000000E-01  0.00000000E+00  0.00000000E+00   1.0
   1   1   1   1  0.11609640110087D+02 -0.36647072025115D-07
   2   1   1   1 -0.25432836314430D+01  0.00000000000000D+00
   3   1   1   1  0.85729306522158D-14  0.00000000000000D+00
   1   2   1   1  0.35151177123896D+00  0.21291809569683D-07
   2   2   1   1  0.11980858803696D+01 -0.96722879125106D-10
   3   2   1   1 -0.58681844206880D-14  0.25560927536997D-15
   1   1   2   1 -0.25432836314430D+01  0.00000000000000D+00
   2   1   2   1  0.50865672628862D+01  0.00000000000000D+00
   3   1   2   1 -0.66124505960416D-15  0.00000000000000D+00
   1   2   2   1  0.11980858803696D+01 -0.96722879125106D-10
   2   2   2   1 -0.23961717607393D+01  0.19344571656871D-09
   3   2   2   1 -0.55897631745407D-14 -0.11881965962301D-16
   1   1   3   1  0.85729306522158D-14  0.00000000000000D+00
   2   1   3   1 -0.66124505960416D-15  0.00000000000000D+00
   3   1   3   1  0.20849975159153D+02  0.00000000000000D+00
   1   2   3   1 -0.58681844206880D-14  0.25560926213509D-15
   2   2   3   1 -0.55897631745407D-14 -0.11881965962351D-16
   3   2   3   1 -0.87450845671761D+01 -0.91732275809517D-09
   1   1   1   2  0.35151177123896D+00  0.21291810562911D-07
   2   1   1   2  0.11980858803696D+01 -0.96722819519799D-10
   3   1   1   2 -0.58681844206880D-14 -0.25560927536997D-15
   1   2   1   2  0.11609640110087D+02 -0.36647072025115D-07
   2   2   1   2 -0.25432836314430D+01  0.00000000000000D+00
   3   2   1   2  0.85729306520090D-14  0.00000000000000D+00
   1   1   2   2  0.11980858803696D+01 -0.96722819519799D-10
   2   1   2   2 -0.23961717607393D+01  0.19344568072110D-09
   3   1   2   2 -0.55897631745407D-14  0.11881965962301D-16
   1   2   2   2 -0.25432836314430D+01  0.00000000000000D+00
   2   2   2   2  0.50865672628862D+01  0.00000000000000D+00
   3   2   2   2 -0.66124505955246D-15  0.00000000000000D+00
   1   1   3   2 -0.58681844206880D-14 -0.25560928860486D-15
   2   1   3   2 -0.55897631745407D-14  0.11881965962250D-16
   3   1   3   2 -0.87450845671761D+01 -0.91732229152267D-09
   1   2   3   2  0.85729306520090D-14  0.00000000000000D+00
   2   2   3   2 -0.66124505955246D-15  0.00000000000000D+00
   3   2   3   2  0.20849975159153D+02  0.00000000000000D+00
  
 2nd derivatives (non-stat.)  - # elements :      36
 qpt  0.00000000E+00  0.00000000E+00  5.00000000E-01   1.0
   1   1   1   1  0.13813295692361D+01  0.15834426725080D-08
   2   1   1   1 -0.69066478461799D+00 -0.79172133625401D-09
   3   1   1   1  0.27209280425414D-14  0.00000000000000D+00
   1   2   1   1 -0.94100995233834D-15 -0.57684073892065D-15
   2   2   1   1  0.10972979535650D-14  0.26047197085168D-15
   3   2   1   1 -0.44105274206808D-14  0.23116527408197D-16
   1   1   2   1 -0.69066478461799D+00 -0.79172133625401D-09
   2   1   2   1  0.13813295692361D+01  0.15834426725080D-08
   3   1   2   1  0.13711999501598D-15  0.00000000000000D+00
   1   2   2   1  0.10972979537028D-14  0.26047196202842D-15
   2   2   2   1 -0.21032776298986D-14 -0.10431779628570D-15
   3   2   2   1  0.19480160397224D-14 -0.96971458719764D-16
   1   1   3   1  0.27209280248949D-14  0.00000000000000D+00
   2   1   3   1  0.13711999501598D-15  0.00000000000000D+00
   3   1   3   1  0.22113542517426D+02  0.00000000000000D+00
   1   2   3   1 -0.44105274239895D-14  0.23116597994276D-16
   2   2   3   1  0.19480160308991D-14 -0.96971176375448D-16
   3   2   3   1  0.41636912900450D-14 -0.16551524130835D-14
   1   1   1   2 -0.94100995240727D-15  0.57684073892065D-15
   2   1   1   2  0.10972979536296D-14 -0.26047197085168D-15
   3   1   1   2 -0.44105274187507D-14 -0.23116386236039D-16
   1   2   1   2  0.13813295692361D+01  0.15834426725080D-08
   2   2   1   2 -0.69066478461799D+00 -0.79172133625401D-09
   3   2   1   2  0.27209280450746D-14  0.00000000000000D+00
   1   1   2   2  0.10972979538062D-14 -0.26047196202842D-15
   2   1   2   2 -0.21032776297866D-14  0.10431779628570D-15
   3   1   2   2  0.19480160355865D-14  0.96970894031132D-16
   1   2   2   2 -0.69066478461799D+00 -0.79172133625401D-09
   2   2   2   2  0.13813295692361D+01  0.15834426725080D-08
   3   2   2   2  0.13711998969100D-15  0.00000000000000D+00
   1   1   3   2 -0.44105274239895D-14 -0.23116597994276D-16
   2   1   3   2  0.19480160308991D-14  0.96971176375448D-16
   3   1   3   2  0.41636912922509D-14  0.16551524130835D-14
   1   2   3   2  0.27209280274281D-14  0.00000000000000D+00
   2   2   3   2  0.13711998969100D-15  0.00000000000000D+00
   3   2   3   2  0.22113542517426D+02  0.00000000000000D+00
  
 2nd derivatives (non-stat.)  - # elements :      36
 qpt  5.00000000E-01  0.00000000E+00  5.00000000E-01   1.0
   1   1   1   1  0.10539704785361D+02  0.19482809633033D-06
   2   1   1   1 -0.17544519271474D+01  0.00000000000000D+00
   3   1   1   1 -0.13850391876808D-15  0.00000000000000D+00
   1   2   1   1  0.15890224769159D-14  0.16968739812874D-14
   2   2   1   1  0.66666177241568D-15 -0.76611807656374D-16
   3   2   1   1 -0.82651553765798D+01 -0.64760696730085D-06
   1   1   2   1 -0.17544519271474D+01  0.00000000000000D+00
   2   1   2   1  0.35089038542949D+01  0.00000000000000D+00
   3   1   2   1  0.71889336338327D-15  0.00000000000000D+00
   1   2   2   1  0.66666177241568D-15 -0.76611807656374D-16
   2   2   2   1 -0.12213757143515D-14 -0.32682603522859D-15
   3   2   2   1  0.58496463239824D-16 -0.26591196787233D-15
   1   1   3   1 -0.13850389891574D-15  0.00000000000000D+00
   2   1   3   1  0.71889336338347D-15  0.00000000000000D+00
   3   1   3   1  0.22052956826882D+02  0.00000000000000D+00
   1   2   3   1 -0.82649162895151D+01  0.42302001911253D-08
   2   2   3   1  0.58496674998061D-16 -0.26591196787233D-15
   3   2   3   1 -0.99442961893138D-15 -0.36818738246490D-15
   1   1   1   2  0.15890224483781D-14 -0.16968740342269D-14
   2   1   1   2  0.66666177236399D-15  0.76611807656374D-16
   3   1   1   2 -0.82651553765798D+01 -0.64760696684676D-06
   1   2   1   2  0.10539704785361D+02  0.19482809633033D-06
   2   2   1   2 -0.17544519271474D+01  0.00000000000000D+00
   3   2   1   2 -0.13850391623484D-15  0.00000000000000D+00
   1   1   2   2  0.66666177282927D-15  0.76611807656374D-16
   2   1   2   2 -0.12213757143515D-14  0.32682603522859D-15
   3   1   2   2  0.58496463239824D-16  0.26591196787233D-15
   1   2   2   2 -0.17544519271474D+01  0.00000000000000D+00
   2   2   2   2  0.35089038542949D+01  0.00000000000000D+00
   3   2   2   2  0.71889335805830D-15  0.00000000000000D+00
   1   1   3   2 -0.82649162895151D+01  0.42302006452219D-08
   2   1   3   2  0.58496674998061D-16  0.26591196787233D-15
   3   1   3   2 -0.99442963216627D-15  0.36818738246490D-15
   1   2   3   2 -0.13850390961739D-15  0.00000000000000D+00
   2   2   3   2  0.71889335805799D-15  0.00000000000000D+00
   3   2   3   2  0.22052956826882D+02  0.00000000000000D+00

 List of bloks and their characteristics 
  
 2nd derivatives (non-stat.)  - # elements :      64
 qpt  0.00000000E+00  0.00000000E+00  0.00000000E+00   1.0
  
 2nd derivatives (non-stat.)  - # elements :      36
 qpt  5.00000000E-01  0.00000000E+00  0.00000000E+00   1.0
  
 2nd derivatives (non-stat.)  - # elements :      36
 qpt  0.00000000E+00  0.00000000E+00  5.00000000E-01   1.0
  
 2nd derivatives (non-stat.)  - # elements :      36
 qpt  5.00000000E-01  0.00000000E+00  5.00000000E-01   1.0
