
.Version 7.9.3 of ABINIT 
.(MPI version, prepared for a x86_64_linux_gnu4.6 computer) 

.Copyright (C) 1998-2014 ABINIT group . 
 ABINIT comes with ABSOLUTELY NO WARRANTY.
 It is free software, and you are welcome to redistribute it
 under certain conditions (GNU General Public License,
 see ~abinit/COPYING or http://www.gnu.org/copyleft/gpl.txt).

 ABINIT is a project of the Universite Catholique de Louvain,
 Corning Inc. and other collaborators, see ~abinit/doc/developers/contributors.txt .
 Please read ~abinit/doc/users/acknowledgments.html for suggested
 acknowledgments of the ABINIT effort.
 For more information, see http://www.abinit.org .

.Starting date : Sat 30 Aug 2014.
- ( at 10h07 )
  
- input  file    -> tdfpt_03.in
- output file    -> tdfpt_03_MPI24.out
- root for input  files -> tdfpt_03_MPI24i
- root for output files -> tdfpt_03_MPI24o


 Symmetries : space group Pm m m (# 47); Bravais oP (primitive ortho.)
================================================================================
 Values of the parameters that define the memory need of the present run
   intxc =         0  ionmov =         0    iscf =         7 xclevel =         1
  lmnmax =         4   lnmax =         4   mband =       120  mffmem =         1
P  mgfft =       192   mkmem =         1 mpssoang=         3     mpw =      1405
  mqgrid =      3533   natom =        29    nfft =    172800    nkpt =         4
  nloalg =         4  nspden =         1 nspinor =         1  nsppol =         1
    nsym =         8  n1xccc =      2501  ntypat =         3  occopt =         1
 For the susceptibility and dielectric matrices, or tddft :
   mgfft =       120  nbnd_in_blk=    15    nfft =     30720     npw =        84
================================================================================
P This job should need less than                      62.147 Mbytes of memory.
  Rough estimation (10% accuracy) of disk space for files :
_ WF disk file :     10.293 Mbytes ; DEN or POT disk file :      1.320 Mbytes.
================================================================================

--------------------------------------------------------------------------------
------------- Echo of variables that govern the present computation ------------
--------------------------------------------------------------------------------
-
- outvars: echo of selected default values                                      
-   accesswff0 =  0 , fftalg0 =312 , wfoptalg0 =  0
-
- outvars: echo of global parameters not present in the input file              
-  max_nthreads =    0
-
 -outvars: echo values of preprocessed input variables --------
        accesswff           1
            acell      7.5589045315E+00  7.5589045315E+00  5.2912331721E+01 Bohr
              amu      1.37327000E+02  4.78800000E+01  1.59994000E+01
             ecut      1.50000000E+01 Hartree
-          fftalg         401
      fft_opt_lob           2
           iprcch           6
           iprcel          45
              ixc           3
              kpt      1.25000000E-01  1.25000000E-01  5.00000000E-01
                       3.75000000E-01  1.25000000E-01  5.00000000E-01
                       1.25000000E-01  3.75000000E-01  5.00000000E-01
                       3.75000000E-01  3.75000000E-01  5.00000000E-01
         kptrlatt        4    0    0      0    4    0      0    0    1
          kptrlen      3.02356181E+01
P           mkmem           1
            natom          29
            nband         120
            ngfft          30      30     192
             nkpt           4
-          npband           6
-           npkpt           4
            nstep          50
             nsym           8
           ntypat           3
              occ      2.000000  2.000000  2.000000  2.000000  2.000000  2.000000
                       2.000000  2.000000  2.000000  2.000000  2.000000  2.000000
                       2.000000  2.000000  2.000000  2.000000  2.000000  2.000000
                       2.000000  2.000000  2.000000  2.000000  2.000000  2.000000
                       2.000000  2.000000  2.000000  2.000000  2.000000  2.000000
                       2.000000  2.000000  2.000000  2.000000  2.000000  2.000000
                       2.000000  2.000000  2.000000  2.000000  2.000000  2.000000
                       2.000000  2.000000  2.000000  2.000000  2.000000  2.000000
                       2.000000  2.000000  2.000000  2.000000  2.000000  2.000000
                       2.000000  2.000000  2.000000  2.000000  2.000000  2.000000
                       2.000000  2.000000  2.000000  2.000000  2.000000  2.000000
                       2.000000  2.000000  2.000000  2.000000  2.000000  2.000000
                       2.000000  2.000000  2.000000  2.000000  2.000000  2.000000
                       2.000000  2.000000  2.000000  2.000000  2.000000  2.000000
                       2.000000  2.000000  2.000000  2.000000  2.000000  2.000000
                       2.000000  2.000000  2.000000  2.000000  2.000000  2.000000
                       2.000000  2.000000  2.000000  2.000000  2.000000  2.000000
                       2.000000  2.000000  2.000000  2.000000  2.000000  2.000000
                       2.000000  2.000000  2.000000  2.000000  2.000000  2.000000
                       2.000000  2.000000  0.000000  0.000000  0.000000  0.000000
           ortalg          -2
        paral_kgb           1
           prtden           0
           shiftk      5.00000000E-01  5.00000000E-01  5.00000000E-01
          spgroup          47
           symrel      1  0  0   0  1  0   0  0  1      -1  0  0   0 -1  0   0  0 -1
                      -1  0  0   0  1  0   0  0 -1       1  0  0   0 -1  0   0  0  1
                      -1  0  0   0 -1  0   0  0  1       1  0  0   0  1  0   0  0 -1
                       1  0  0   0 -1  0   0  0 -1      -1  0  0   0  1  0   0  0  1
            tnons      0.0000000  0.0000000  0.0000000     0.0000000  0.0000000 -0.4285714
                       0.0000000  0.0000000 -0.4285714     0.0000000  0.0000000  0.0000000
                       0.0000000  0.0000000  0.0000000     0.0000000  0.0000000 -0.4285714
                       0.0000000  0.0000000 -0.4285714     0.0000000  0.0000000  0.0000000
           tolwfr      1.00000000E-22
            typat      3  3  2  3  3  2  1  3  3  3  2  1  3  3  3  2  1  3  3  3
                       2  1  3  3  3  2  3  3  2
         wfoptalg          14
              wtk        0.25000    0.25000    0.25000    0.25000
           xangst      0.0000000000E+00  0.0000000000E+00 -2.2560597003E+00
                       2.0000000000E+00  2.0000000000E+00 -1.7358821221E+00
                       0.0000000000E+00  2.0000000000E+00 -1.9382320766E+00
                       2.0000000000E+00  0.0000000000E+00  3.4528873159E-01
                       0.0000000000E+00  2.0000000000E+00 -5.5854849972E-02
                       2.0000000000E+00  2.0000000000E+00  1.7294657522E-01
                       0.0000000000E+00  0.0000000000E+00  2.1069676394E+00
                       2.0000000000E+00  2.0000000000E+00  2.1255940917E+00
                       2.0000000000E+00  0.0000000000E+00  4.1033165071E+00
                       0.0000000000E+00  2.0000000000E+00  4.0568887931E+00
                       2.0000000000E+00  2.0000000000E+00  4.0843127188E+00
                       0.0000000000E+00  0.0000000000E+00  6.0394536284E+00
                       2.0000000000E+00  2.0000000000E+00  6.0414127393E+00
                       2.0000000000E+00  0.0000000000E+00  8.0000000000E+00
                       0.0000000000E+00  2.0000000000E+00  8.0000000000E+00
                       2.0000000000E+00  2.0000000000E+00  8.0000000000E+00
                       0.0000000000E+00  0.0000000000E+00  9.9605463720E+00
                       2.0000000000E+00  2.0000000000E+00  9.9585872606E+00
                       2.0000000000E+00  0.0000000000E+00  1.1896683493E+01
                       0.0000000000E+00  2.0000000000E+00  1.1943111207E+01
                       2.0000000000E+00  2.0000000000E+00  1.1915687281E+01
                       0.0000000000E+00  0.0000000000E+00  1.3893032361E+01
                       2.0000000000E+00  2.0000000000E+00  1.3874405908E+01
                       2.0000000000E+00  0.0000000000E+00  1.5654711268E+01
                       0.0000000000E+00  2.0000000000E+00  1.6055854850E+01
                       2.0000000000E+00  2.0000000000E+00  1.5827053425E+01
                       0.0000000000E+00  0.0000000000E+00  1.8256059700E+01
                       2.0000000000E+00  2.0000000000E+00  1.7735882122E+01
                       0.0000000000E+00  2.0000000000E+00  1.7938232077E+01
            xcart      0.0000000000E+00  0.0000000000E+00 -4.2633349730E+00
                       3.7794522658E+00  3.7794522658E+00 -3.2803418097E+00
                       0.0000000000E+00  3.7794522658E+00 -3.6627278067E+00
                       3.7794522658E+00  0.0000000000E+00  6.5250113947E-01
                       0.0000000000E+00  3.7794522658E+00 -1.0555036964E-01
                       3.7794522658E+00  3.7794522658E+00  3.2682166278E-01
                       0.0000000000E+00  0.0000000000E+00  3.9815918094E+00
                       3.7794522658E+00  3.7794522658E+00  4.0167907030E+00
                       3.7794522658E+00  0.0000000000E+00  7.7541444349E+00
                       0.0000000000E+00  3.7794522658E+00  7.6664087705E+00
                       3.7794522658E+00  3.7794522658E+00  7.7182324796E+00
                       0.0000000000E+00  0.0000000000E+00  1.1412913350E+01
                       3.7794522658E+00  3.7794522658E+00  1.1416615533E+01
                       3.7794522658E+00  0.0000000000E+00  1.5117809063E+01
                       0.0000000000E+00  3.7794522658E+00  1.5117809063E+01
                       3.7794522658E+00  3.7794522658E+00  1.5117809063E+01
                       0.0000000000E+00  0.0000000000E+00  1.8822704777E+01
                       3.7794522658E+00  3.7794522658E+00  1.8819002593E+01
                       3.7794522658E+00  0.0000000000E+00  2.2481473692E+01
                       0.0000000000E+00  3.7794522658E+00  2.2569209355E+01
                       3.7794522658E+00  3.7794522658E+00  2.2517385647E+01
                       0.0000000000E+00  0.0000000000E+00  2.6254026317E+01
                       3.7794522658E+00  3.7794522658E+00  2.6218827423E+01
                       3.7794522658E+00  0.0000000000E+00  2.9583116986E+01
                       0.0000000000E+00  3.7794522658E+00  3.0341168496E+01
                       3.7794522658E+00  3.7794522658E+00  2.9908796464E+01
                       0.0000000000E+00  0.0000000000E+00  3.4498953099E+01
                       3.7794522658E+00  3.7794522658E+00  3.3515959935E+01
                       0.0000000000E+00  3.7794522658E+00  3.3898345933E+01
             xred      0.0000000000E+00  0.0000000000E+00 -8.0573560725E-02
                       5.0000000000E-01  5.0000000000E-01 -6.1995790074E-02
                       0.0000000000E+00  5.0000000000E-01 -6.9222574163E-02
                       5.0000000000E-01  0.0000000000E+00  1.2331740414E-02
                       0.0000000000E+00  5.0000000000E-01 -1.9948160704E-03
                       5.0000000000E-01  5.0000000000E-01  6.1766634006E-03
                       0.0000000000E+00  0.0000000000E+00  7.5248844266E-02
                       5.0000000000E-01  5.0000000000E-01  7.5914074704E-02
                       5.0000000000E-01  0.0000000000E+00  1.4654701811E-01
                       0.0000000000E+00  5.0000000000E-01  1.4488888547E-01
                       5.0000000000E-01  5.0000000000E-01  1.4586831139E-01
                       0.0000000000E+00  0.0000000000E+00  2.1569477244E-01
                       5.0000000000E-01  5.0000000000E-01  2.1576474069E-01
                       5.0000000000E-01  0.0000000000E+00  2.8571428571E-01
                       0.0000000000E+00  5.0000000000E-01  2.8571428571E-01
                       5.0000000000E-01  5.0000000000E-01  2.8571428571E-01
                       0.0000000000E+00  0.0000000000E+00  3.5573379900E-01
                       5.0000000000E-01  5.0000000000E-01  3.5566383074E-01
                       5.0000000000E-01  0.0000000000E+00  4.2488155333E-01
                       0.0000000000E+00  5.0000000000E-01  4.2653968595E-01
                       5.0000000000E-01  5.0000000000E-01  4.2556026005E-01
                       0.0000000000E+00  0.0000000000E+00  4.9617972717E-01
                       5.0000000000E-01  5.0000000000E-01  4.9551449672E-01
                       5.0000000000E-01  0.0000000000E+00  5.5909683100E-01
                       0.0000000000E+00  5.0000000000E-01  5.7342338750E-01
                       5.0000000000E-01  5.0000000000E-01  5.6525190804E-01
                       0.0000000000E+00  0.0000000000E+00  6.5200213215E-01
                       5.0000000000E-01  5.0000000000E-01  6.3342436149E-01
                       0.0000000000E+00  5.0000000000E-01  6.4065114559E-01
            znucl       56.00000   22.00000    8.00000

================================================================================

 chkinp: Checking input parameters for consistency.

================================================================================
== DATASET  1 ==================================================================
-   nproc =   24

 Exchange-correlation functional for the present dataset will be:
  LDA: old Teter (4/91) fit to Ceperley-Alder data - ixc=3

 Real(R)+Recip(G) space primitive vectors, cartesian coordinates (Bohr,Bohr^-1):
 R(1)=  7.5589045  0.0000000  0.0000000  G(1)=  0.1322943  0.0000000  0.0000000
 R(2)=  0.0000000  7.5589045  0.0000000  G(2)=  0.0000000  0.1322943  0.0000000
 R(3)=  0.0000000  0.0000000 52.9123317  G(3)=  0.0000000  0.0000000  0.0188992
 Unit cell volume ucvol=  3.0232539E+03 bohr^3
 Angles (23,13,12)=  9.00000000E+01  9.00000000E+01  9.00000000E+01 degrees

 getcut: wavevector=  0.0000  0.0000  0.0000  ngfft=  30  30 192
         ecut(hartree)=     15.000   => boxcut(ratio)=   2.08129

--- Pseudopotential description ------------------------------------------------
- pspini: atom type   1  psp file is /home/buildbot/ABINIT/cronos_gcc46_paral/trunk_7.9.3-private/tests/Psps_for_tests/56ba.psp_mod
- pspatm: opening atomic psp file    /home/buildbot/ABINIT/cronos_gcc46_paral/trunk_7.9.3-private/tests/Psps_for_tests/56ba.psp_mod
- Barium.ion 5s2.5p6.6s0.5d0 rcs=rcp=rcd=1.7 ecut=22/28
- 56.00000  10.00000    940000                znucl, zion, pspdat
    4    3    2    2      2001   0.00000      pspcod,pspxc,lmax,lloc,mmax,r2well
    0   0.000   0.000    2   1.6965489        l,e99.0,e99.9,nproj,rcpsp
   0.00000000   0.00000000   0.00000000   0.00000000     rms, ekb1, ekb2, epsatm
    1   0.000   0.000    2   1.6965489        l,e99.0,e99.9,nproj,rcpsp
   0.00000000   0.00000000   0.00000000   0.00000000     rms, ekb1, ekb2, epsatm
    2   0.000   0.000    0   1.6965489        l,e99.0,e99.9,nproj,rcpsp
   0.00000000   0.00000000   0.00000000   0.00000000     rms, ekb1, ekb2, epsatm
    0.00000000000000    0.00000000000000    0.00000000000000   rchrg,fchrg,qchrg
 pspatm: epsatm=   43.25917021
         --- l  ekb(1:nproj) -->
             0   -9.646692   27.266828
             1   -6.938476   21.148499
 pspatm: atomic psp has been read  and splines computed

- pspini: atom type   2  psp file is /home/buildbot/ABINIT/cronos_gcc46_paral/trunk_7.9.3-private/tests/Psps_for_tests/22ti.psp_mod
- pspatm: opening atomic psp file    /home/buildbot/ABINIT/cronos_gcc46_paral/trunk_7.9.3-private/tests/Psps_for_tests/22ti.psp_mod
- Titane.ion 3s2.3p6.4s0.3d2 rcd=1.65, rcs=rc0=1.25, ecut 32/54
- 22.00000  12.00000    940000                znucl, zion, pspdat
    4    3    2    2      2001   0.00000      pspcod,pspxc,lmax,lloc,mmax,r2well
    0   0.000   0.000    2   1.2533577        l,e99.0,e99.9,nproj,rcpsp
   0.00000000   0.00000000   0.00000000   0.00000000     rms, ekb1, ekb2, epsatm
    1   0.000   0.000    2   1.2533577        l,e99.0,e99.9,nproj,rcpsp
   0.00000000   0.00000000   0.00000000   0.00000000     rms, ekb1, ekb2, epsatm
    2   0.000   0.000    0   1.6491622        l,e99.0,e99.9,nproj,rcpsp
   0.00000000   0.00000000   0.00000000   0.00000000     rms, ekb1, ekb2, epsatm
    0.00000000000000    0.00000000000000    0.00000000000000   rchrg,fchrg,qchrg
 pspatm: epsatm=    4.67708954
         --- l  ekb(1:nproj) -->
             0    9.517316   -2.344682
             1    5.011406   -0.741179
 pspatm: atomic psp has been read  and splines computed

- pspini: atom type   3  psp file is /home/buildbot/ABINIT/cronos_gcc46_paral/trunk_7.9.3-private/tests/Psps_for_tests/8o.psp_mod
- pspatm: opening atomic psp file    /home/buildbot/ABINIT/cronos_gcc46_paral/trunk_7.9.3-private/tests/Psps_for_tests/8o.psp_mod
- 1.65bohr 35 hartree exncc psp for oxygen with core 19 june 1992
-  8.00000   6.00000    920619                znucl, zion, pspdat
    4    3    1    1      2001   0.00000      pspcod,pspxc,lmax,lloc,mmax,r2well
    0   0.000   0.000    2   1.6491622        l,e99.0,e99.9,nproj,rcpsp
   0.00000000   0.00000000   0.00000000   0.00000000     rms, ekb1, ekb2, epsatm
    1   0.000   0.000    0   1.6491622        l,e99.0,e99.9,nproj,rcpsp
   0.00000000   0.00000000   0.00000000   0.00000000     rms, ekb1, ekb2, epsatm
    1.00000000000000    0.95000909444395    0.44408665956870   rchrg,fchrg,qchrg
 pspatm: epsatm=    1.15255884
         --- l  ekb(1:nproj) -->
             0    7.721978   -1.904542
 pspatm: atomic psp has been read  and splines computed

   5.25531891E+04                                ecore*ucvol(ha*bohr**3)
--------------------------------------------------------------------------------

P newkpt: treating    120 bands with npw=    1405 for ikpt=   1 by node    0
P newkpt: treating    120 bands with npw=    1399 for ikpt=   2 by node    1
P newkpt: treating    120 bands with npw=    1399 for ikpt=   3 by node    2
P newkpt: treating    120 bands with npw=    1393 for ikpt=   4 by node    3

_setup2: Arith. and geom. avg. npw (full set) are    1399.000    1398.994

================================================================================

     iter   Etot(hartree)      deltaE(h)  residm     vres2
 ETOT  1  -787.56806072783    -7.876E+02 1.871E-02 7.805E+04
 ETOT  2  -791.09663017743    -3.529E+00 1.910E-03 8.419E+02
 ETOT  3  -791.44332910658    -3.467E-01 1.591E-03 4.264E+02
 ETOT  4  -791.51429800876    -7.097E-02 7.235E-04 3.812E+02
 ETOT  5  -791.52879861577    -1.450E-02 3.957E-04 2.625E+02
 ETOT  6  -791.53169098763    -2.892E-03 5.540E-04 1.955E+02
 ETOT  7  -791.53442198182    -2.731E-03 4.944E-04 9.931E+01
 ETOT  8  -791.53570344747    -1.281E-03 4.778E-04 5.045E+01
 ETOT  9  -791.53626950520    -5.661E-04 2.986E-04 2.720E+01
 ETOT 10  -791.53642140828    -1.519E-04 1.892E-04 1.341E+01
 ETOT 11  -791.53657287809    -1.515E-04 1.392E-04 1.017E+01
 ETOT 12  -791.53659793929    -2.506E-05 9.201E-05 7.432E+00
 ETOT 13  -791.53664378653    -4.585E-05 5.111E-05 6.345E+00
 ETOT 14  -791.53665741629    -1.363E-05 3.389E-05 5.033E+00
 ETOT 15  -791.53666895632    -1.154E-05 4.551E-05 4.466E+00
 ETOT 16  -791.53667958006    -1.062E-05 1.926E-05 2.722E+00
 ETOT 17  -791.53668585580    -6.276E-06 1.888E-05 2.887E+00
 ETOT 18  -791.53669204852    -6.193E-06 9.848E-06 2.090E+00
 ETOT 19  -791.53669356874    -1.520E-06 1.664E-05 2.130E+00
 ETOT 20  -791.53668811551     5.453E-06 1.001E-05 2.643E+00
 ETOT 21  -791.53669483648    -6.721E-06 1.028E-05 1.650E+00
 ETOT 22  -791.53669690173    -2.065E-06 7.417E-06 6.262E-01
 ETOT 23  -791.53670559667    -8.695E-06 1.247E-05 5.212E-01
 ETOT 24  -791.53670716398    -1.567E-06 4.580E-06 2.932E-01
 ETOT 25  -791.53670802761    -8.636E-07 6.456E-06 2.051E-01
 ETOT 26  -791.53670928429    -1.257E-06 2.760E-06 4.665E-02
 ETOT 27  -791.53671043611    -1.152E-06 2.579E-06 1.908E-02
 ETOT 28  -791.53671146614    -1.030E-06 4.601E-06 1.465E-02
 ETOT 29  -791.53671163923    -1.731E-07 3.454E-06 4.816E-03
 ETOT 30  -791.53671179682    -1.576E-07 3.210E-06 1.376E-03
 ETOT 31  -791.53671172274     7.408E-08 2.462E-06 5.796E-03
 ETOT 32  -791.53671183636    -1.136E-07 2.751E-06 1.116E-03
 ETOT 33  -791.53671192291    -8.655E-08 1.496E-06 8.137E-04
 ETOT 34  -791.53671190823     1.467E-08 1.233E-06 1.406E-04
 ETOT 35  -791.53671194069    -3.246E-08 1.832E-06 1.289E-04
 ETOT 36  -791.53671193538     5.306E-09 1.208E-06 6.721E-04
 ETOT 37  -791.53671194341    -8.030E-09 1.399E-06 4.583E-04
 ETOT 38  -791.53671194757    -4.156E-09 1.637E-06 5.958E-04
 ETOT 39  -791.53671194869    -1.121E-09 1.558E-06 2.005E-04
 ETOT 40  -791.53671195216    -3.468E-09 1.575E-06 3.146E-04
 ETOT 41  -791.53671195258    -4.176E-10 6.658E-07 2.155E-04
 ETOT 42  -791.53671195349    -9.112E-10 1.168E-06 2.228E-04
 ETOT 43  -791.53671195404    -5.566E-10 5.609E-07 1.214E-04
 ETOT 44  -791.53671195396     8.288E-11 2.013E-06 9.681E-05
 ETOT 45  -791.53671195518    -1.222E-09 3.773E-07 4.448E-05
 ETOT 46  -791.53671195481     3.773E-10 9.366E-07 7.986E-06
 ETOT 47  -791.53671195588    -1.074E-09 3.034E-07 4.461E-06
 ETOT 48  -791.53671195559     2.873E-10 1.282E-06 2.744E-06
 ETOT 49  -791.53671195572    -1.227E-10 3.221E-07 1.775E-06
 ETOT 50  -791.53671195582    -1.029E-10 9.734E-07 5.107E-07

 Cartesian components of stress tensor (hartree/bohr^3)
  sigma(1 1)=  7.13508258E-03  sigma(3 2)=  0.00000000E+00
  sigma(2 2)=  7.55157834E-03  sigma(3 1)=  0.00000000E+00
  sigma(3 3)=  6.95794947E-03  sigma(2 1)=  0.00000000E+00


 scprqt:  WARNING -
  nstep=   50 was not enough SCF cycles to converge;
  maximum residual=  9.734E-07 exceeds tolwfr=  1.000E-22

================================================================================

 ----iterations are completed or convergence reached----

 Mean square residual over all n,k,spin=   2.1636E-09; max=  9.7338E-07
   0.1250  0.1250  0.5000    1  9.73376E-07 kpt; spin; max resid(k); each band:
  7.20E-17 4.79E-19 2.44E-17 5.45E-16 1.13E-12 2.64E-16 8.46E-15 8.61E-16
  2.45E-15 1.94E-15 1.83E-15 3.61E-15 2.01E-16 1.86E-16 1.97E-16 3.97E-15
  4.85E-15 1.77E-13 7.34E-15 4.05E-15 3.06E-14 3.51E-17 2.01E-15 8.99E-13
  1.70E-14 6.79E-16 9.09E-17 1.34E-16 3.81E-13 3.25E-13 2.23E-14 1.87E-14
  1.78E-15 1.70E-15 1.17E-13 5.50E-14 1.35E-14 1.07E-14 2.42E-14 9.34E-14
  1.70E-14 3.26E-14 1.91E-15 9.71E-16 2.73E-15 4.19E-15 2.85E-15 2.56E-15
  6.64E-17 5.17E-17 7.14E-14 1.31E-14 3.06E-15 6.45E-14 2.61E-15 6.71E-15
  1.53E-13 1.65E-13 6.86E-15 4.22E-14 1.45E-14 5.28E-15 2.40E-15 1.64E-15
  5.89E-14 3.87E-14 5.85E-15 1.61E-14 3.96E-14 3.79E-14 4.64E-14 2.07E-14
  1.23E-14 7.44E-14 7.86E-14 2.84E-14 2.43E-14 4.85E-14 1.64E-14 6.59E-15
  1.33E-14 3.17E-14 6.16E-14 8.21E-14 5.17E-14 2.38E-14 5.42E-14 8.65E-15
  9.50E-15 7.88E-14 2.07E-14 2.57E-14 3.80E-14 6.49E-14 4.26E-14 2.45E-14
  2.49E-14 4.30E-14 3.18E-14 1.57E-14 1.15E-13 2.12E-14 6.18E-14 1.92E-14
  1.40E-14 9.23E-14 6.00E-14 1.44E-14 3.99E-15 7.16E-15 2.83E-15 2.84E-15
  6.00E-16 8.28E-16 5.39E-16 6.24E-16 1.28E-11 1.79E-11 5.82E-08 9.73E-07
   0.3750  0.1250  0.5000    1  5.36194E-09 kpt; spin; max resid(k); each band:
  2.63E-19 1.23E-18 2.74E-17 1.38E-16 4.53E-18 6.37E-18 2.41E-17 3.75E-16
  9.01E-16 2.80E-15 2.59E-15 2.02E-15 1.25E-16 1.09E-16 7.54E-16 7.21E-15
  7.11E-16 1.92E-13 1.74E-16 3.00E-17 1.78E-16 8.38E-18 3.03E-15 1.09E-15
  1.41E-16 8.23E-17 9.87E-18 1.06E-17 8.85E-13 4.40E-13 1.61E-14 1.39E-14
  2.69E-15 1.65E-15 4.01E-13 7.27E-14 6.56E-15 2.55E-14 5.31E-15 1.81E-14
  1.00E-14 4.21E-14 1.51E-15 1.94E-15 2.53E-15 2.51E-15 1.18E-15 1.39E-15
  5.58E-17 1.07E-17 5.68E-14 9.58E-14 9.09E-14 9.77E-14 1.54E-14 3.82E-15
  2.24E-15 7.29E-14 1.42E-13 2.45E-14 8.49E-15 1.12E-14 1.61E-15 1.38E-15
  1.21E-14 6.22E-15 2.13E-14 2.52E-14 1.71E-14 1.33E-14 7.71E-14 4.82E-14
  2.49E-14 1.69E-14 2.64E-14 2.65E-14 3.30E-14 1.09E-13 8.33E-15 6.53E-15
  2.96E-14 5.74E-14 2.41E-14 4.27E-14 1.76E-14 1.45E-14 2.08E-14 3.14E-14
  7.98E-14 1.95E-14 1.78E-14 1.15E-14 2.78E-14 3.16E-14 4.80E-14 1.96E-15
  1.01E-15 3.27E-14 3.13E-14 1.86E-14 2.50E-13 7.39E-14 1.38E-14 9.15E-15
  3.45E-15 6.39E-15 2.69E-14 7.84E-15 6.48E-15 1.42E-15 1.45E-15 1.67E-15
  2.40E-15 2.88E-15 2.39E-15 1.68E-15 7.48E-13 1.63E-11 3.18E-10 5.36E-09
   0.1250  0.3750  0.5000    1  1.17802E-09 kpt; spin; max resid(k); each band:
  4.57E-19 1.59E-17 2.47E-17 1.66E-16 7.52E-18 1.08E-17 2.19E-17 8.27E-16
  7.96E-16 1.70E-15 1.81E-15 7.87E-16 1.24E-16 2.69E-17 2.18E-16 4.85E-16
  4.69E-15 1.72E-13 5.32E-16 3.45E-15 1.67E-15 6.18E-16 2.55E-15 8.91E-15
  5.73E-18 1.24E-16 1.87E-17 2.48E-16 5.38E-13 3.63E-13 1.68E-14 1.32E-14
  1.26E-15 7.31E-16 5.40E-13 1.88E-13 1.45E-14 2.85E-14 8.27E-15 1.37E-14
  1.05E-14 7.07E-15 1.64E-15 1.11E-14 2.47E-15 2.99E-15 8.91E-15 1.28E-14
  7.78E-17 5.24E-17 1.07E-13 5.23E-14 7.50E-14 7.27E-14 2.60E-14 6.02E-14
  1.34E-14 6.42E-14 9.87E-14 1.50E-13 1.59E-14 1.58E-14 5.30E-15 1.66E-15
  6.97E-14 4.45E-14 3.51E-14 7.59E-14 2.98E-14 1.87E-14 1.85E-14 1.14E-13
  9.77E-15 1.19E-14 1.16E-14 6.16E-14 1.76E-14 1.05E-13 2.43E-14 3.61E-14
  5.62E-14 5.35E-14 4.77E-14 3.43E-14 2.00E-14 2.05E-14 1.72E-14 9.09E-14
  6.14E-14 7.10E-14 1.26E-14 4.98E-14 5.32E-14 7.05E-14 3.24E-14 5.10E-14
  1.68E-14 7.51E-15 3.66E-14 3.97E-14 7.12E-14 2.90E-14 7.83E-15 5.17E-15
  2.55E-14 5.50E-15 4.08E-15 5.25E-15 6.93E-15 2.26E-15 3.61E-15 6.84E-15
  2.52E-15 6.28E-15 2.55E-15 2.25E-15 1.13E-14 1.48E-13 7.92E-12 1.18E-09
   0.3750  0.3750  0.5000    1  1.28250E-12 kpt; spin; max resid(k); each band:
  2.69E-19 4.77E-18 1.04E-16 4.72E-15 1.28E-12 1.75E-16 7.86E-15 1.13E-15
  1.11E-15 2.83E-15 2.77E-15 1.56E-15 1.02E-16 9.60E-17 8.43E-17 5.15E-15
  5.16E-15 3.07E-13 1.38E-14 1.71E-13 3.10E-14 2.31E-14 7.44E-13 7.47E-13
  1.75E-14 1.44E-14 4.81E-16 1.29E-16 3.33E-13 1.89E-13 2.52E-14 1.76E-14
  2.10E-16 2.28E-16 3.62E-13 8.11E-14 1.48E-14 1.03E-14 7.86E-14 1.94E-14
  1.19E-13 1.64E-14 4.26E-15 3.48E-14 1.12E-15 3.65E-15 1.81E-15 6.12E-15
  1.24E-16 3.48E-17 7.14E-14 1.70E-13 8.74E-14 7.81E-14 1.59E-14 5.40E-14
  3.28E-14 1.85E-14 5.93E-15 4.07E-14 3.73E-15 3.27E-15 1.64E-15 2.77E-15
  1.28E-13 9.86E-15 1.23E-14 1.38E-14 9.80E-15 7.93E-14 1.80E-14 5.61E-14
  4.02E-14 6.68E-14 3.72E-15 1.61E-14 8.41E-15 2.68E-15 2.13E-14 7.13E-15
  1.16E-14 2.88E-14 2.10E-14 2.32E-14 5.15E-14 5.50E-14 4.06E-15 2.16E-15
  8.99E-14 3.58E-14 8.35E-15 1.24E-14 3.59E-14 1.76E-14 1.06E-14 1.74E-14
  5.30E-15 3.06E-15 1.71E-14 4.62E-14 1.25E-14 3.16E-14 1.54E-14 2.97E-14
  1.37E-15 2.18E-14 7.07E-15 1.60E-13 3.88E-15 1.03E-15 8.05E-16 2.42E-15
  1.18E-15 2.92E-15 1.13E-15 5.64E-16 7.60E-14 5.21E-14 5.29E-13 1.48E-13
 reduced coordinates (array xred) for   29 atoms
       0.000000000000      0.000000000000     -0.080573560721
       0.500000000000      0.500000000000     -0.061995790064
       0.000000000000      0.500000000000     -0.069222574162
       0.500000000000      0.000000000000      0.012331740423
       0.000000000000      0.500000000000     -0.001994816070
       0.500000000000      0.500000000000      0.006176663397
       0.000000000000      0.000000000000      0.075248844266
       0.500000000000      0.500000000000      0.075914074707
       0.500000000000      0.000000000000      0.146547018105
       0.000000000000      0.500000000000      0.144888885476
       0.500000000000      0.500000000000      0.145868311384
       0.000000000000      0.000000000000      0.215694772438
       0.500000000000      0.500000000000      0.215764740693
       0.500000000000      0.000000000000      0.285714285716
       0.000000000000      0.500000000000      0.285714285716
       0.500000000000      0.500000000000      0.285714285716
       0.000000000000      0.000000000000      0.355733798995
       0.500000000000      0.500000000000      0.355663830740
       0.500000000000      0.000000000000      0.424881553328
       0.000000000000      0.500000000000      0.426539685957
       0.500000000000      0.500000000000      0.425560260049
       0.000000000000      0.000000000000      0.496179727167
       0.500000000000      0.500000000000      0.495514496725
       0.500000000000      0.000000000000      0.559096831010
       0.000000000000      0.500000000000      0.573423387503
       0.500000000000      0.500000000000      0.565251908036
       0.000000000000      0.000000000000      0.652002132154
       0.500000000000      0.500000000000      0.633424361497
       0.000000000000      0.500000000000      0.640651145595
 rms dE/dt=  7.7121E-01; max dE/dt=  3.1299E+00; dE/dt below (all hartree)
    1       0.000000000000      0.000000000000     -0.106359233402
    2       0.000000000000      0.000000000000      2.618988400274
    3       0.000000000000      0.000000000000      2.717797274301
    4       0.000000000000      0.000000000000      0.455784824820
    5       0.000000000000      0.000000000000     -3.129919779023
    6       0.000000000000      0.000000000000     -1.141779868397
    7       0.000000000000      0.000000000000      0.081436066357
    8       0.000000000000      0.000000000000     -0.504322809189
    9       0.000000000000      0.000000000000      0.174908387029
   10       0.000000000000      0.000000000000     -0.066713879846
   11       0.000000000000      0.000000000000      0.068523863573
   12       0.000000000000      0.000000000000      0.008167793730
   13       0.000000000000      0.000000000000     -0.082799081117
   14       0.000000000000      0.000000000000      0.000000000000
   15       0.000000000000      0.000000000000      0.000000000000
   16       0.000000000000      0.000000000000      0.000000000000
   17       0.000000000000      0.000000000000     -0.008167793730
   18       0.000000000000      0.000000000000      0.082799081117
   19      -0.000000000000      0.000000000000     -0.174908387029
   20       0.000000000000      0.000000000000      0.066713879846
   21       0.000000000000      0.000000000000     -0.068523863573
   22       0.000000000000      0.000000000000     -0.081436066357
   23      -0.000000000000      0.000000000000      0.504322809189
   24       0.000000000000      0.000000000000     -0.455784824820
   25       0.000000000000      0.000000000000      3.129919779023
   26       0.000000000000      0.000000000000      1.141779868397
   27       0.000000000000      0.000000000000      0.106359233402
   28       0.000000000000      0.000000000000     -2.618988400274
   29       0.000000000000      0.000000000000     -2.717797274301

 cartesian coordinates (angstrom) at end:
    1      0.00000000000000     0.00000000000000    -2.25605970019043
    2      2.00000000000000     2.00000000000000    -1.73588212178707
    3      0.00000000000000     2.00000000000000    -1.93823207654802
    4      2.00000000000000     0.00000000000000     0.34528873183260
    5      0.00000000000000     2.00000000000000    -0.05585484996115
    6      2.00000000000000     2.00000000000000     0.17294657511612
    7      0.00000000000000     0.00000000000000     2.10696763944310
    8      2.00000000000000     2.00000000000000     2.12559409180964
    9      2.00000000000000     0.00000000000000     4.10331650693177
   10      0.00000000000000     2.00000000000000     4.05688879332121
   11      2.00000000000000     2.00000000000000     4.08431271875048
   12      0.00000000000000     0.00000000000000     6.03945362827379
   13      2.00000000000000     2.00000000000000     6.04141273940401
   14      2.00000000000000     0.00000000000000     8.00000000006078
   15      0.00000000000000     2.00000000000000     8.00000000006078
   16      2.00000000000000     2.00000000000000     8.00000000006078
   17      0.00000000000000     0.00000000000000     9.96054637184776
   18      2.00000000000000     2.00000000000000     9.95858726071755
   19      2.00000000000000     0.00000000000000    11.89668349318979
   20      0.00000000000000     2.00000000000000    11.94311120680034
   21      2.00000000000000     2.00000000000000    11.91568728137107
   22      0.00000000000000     0.00000000000000    13.89303236067846
   23      2.00000000000000     2.00000000000000    13.87440590831192
   24      2.00000000000000     0.00000000000000    15.65471126828896
   25      0.00000000000000     2.00000000000000    16.05585485008271
   26      2.00000000000000     2.00000000000000    15.82705342500544
   27      0.00000000000000     0.00000000000000    18.25605970031198
   28      2.00000000000000     2.00000000000000    17.73588212190862
   29      0.00000000000000     2.00000000000000    17.93823207666958

 cartesian forces (hartree/bohr) at end:
    1     -0.00000000000000    -0.00000000000000     0.00201010293712
    2     -0.00000000000000    -0.00000000000000    -0.04949674896381
    3     -0.00000000000000    -0.00000000000000    -0.05136415625457
    4     -0.00000000000000    -0.00000000000000    -0.00861396218986
    5     -0.00000000000000    -0.00000000000000     0.05915293613480
    6     -0.00000000000000    -0.00000000000000     0.02157871012795
    7     -0.00000000000000    -0.00000000000000    -0.00153907536690
    8     -0.00000000000000    -0.00000000000000     0.00953129058552
    9     -0.00000000000000    -0.00000000000000    -0.00330562614312
   10     -0.00000000000000    -0.00000000000000     0.00126083802541
   11     -0.00000000000000    -0.00000000000000    -0.00129504524456
   12     -0.00000000000000    -0.00000000000000    -0.00015436465309
   13     -0.00000000000000    -0.00000000000000     0.00156483523641
   14     -0.00000000000000    -0.00000000000000     0.00000000000000
   15     -0.00000000000000    -0.00000000000000     0.00000000000000
   16     -0.00000000000000    -0.00000000000000     0.00000000000000
   17     -0.00000000000000    -0.00000000000000     0.00015436465309
   18     -0.00000000000000    -0.00000000000000    -0.00156483523641
   19      0.00000000000000    -0.00000000000000     0.00330562614312
   20     -0.00000000000000    -0.00000000000000    -0.00126083802541
   21     -0.00000000000000    -0.00000000000000     0.00129504524456
   22     -0.00000000000000    -0.00000000000000     0.00153907536690
   23      0.00000000000000    -0.00000000000000    -0.00953129058552
   24     -0.00000000000000    -0.00000000000000     0.00861396218986
   25     -0.00000000000000    -0.00000000000000    -0.05915293613480
   26     -0.00000000000000    -0.00000000000000    -0.02157871012795
   27     -0.00000000000000    -0.00000000000000    -0.00201010293712
   28     -0.00000000000000    -0.00000000000000     0.04949674896381
   29     -0.00000000000000    -0.00000000000000     0.05136415625457
 frms,max,avg= 1.4575240E-02 5.9152936E-02   0.000E+00  0.000E+00  0.000E+00 h/b

 cartesian forces (eV/Angstrom) at end:
    1     -0.00000000000000    -0.00000000000000     0.10336364025521
    2     -0.00000000000000    -0.00000000000000    -2.54522495302692
    3     -0.00000000000000    -0.00000000000000    -2.64125088873777
    4     -0.00000000000000    -0.00000000000000    -0.44294770806220
    5     -0.00000000000000    -0.00000000000000     3.04176601992909
    6     -0.00000000000000    -0.00000000000000     1.10962179580618
    7     -0.00000000000000    -0.00000000000000    -0.07914243077449
    8     -0.00000000000000    -0.00000000000000     0.49011862679222
    9     -0.00000000000000    -0.00000000000000    -0.16998211642117
   10     -0.00000000000000    -0.00000000000000     0.06483489261758
   11     -0.00000000000000    -0.00000000000000    -0.06659389840236
   12     -0.00000000000000    -0.00000000000000    -0.00793774894594
   13     -0.00000000000000    -0.00000000000000     0.08046705641226
   14     -0.00000000000000    -0.00000000000000     0.00000000000000
   15     -0.00000000000000    -0.00000000000000     0.00000000000000
   16     -0.00000000000000    -0.00000000000000     0.00000000000000
   17     -0.00000000000000    -0.00000000000000     0.00793774894594
   18     -0.00000000000000    -0.00000000000000    -0.08046705641226
   19      0.00000000000000    -0.00000000000000     0.16998211642117
   20     -0.00000000000000    -0.00000000000000    -0.06483489261758
   21     -0.00000000000000    -0.00000000000000     0.06659389840236
   22     -0.00000000000000    -0.00000000000000     0.07914243077449
   23      0.00000000000000    -0.00000000000000    -0.49011862679222
   24     -0.00000000000000    -0.00000000000000     0.44294770806220
   25     -0.00000000000000    -0.00000000000000    -3.04176601992909
   26     -0.00000000000000    -0.00000000000000    -1.10962179580618
   27     -0.00000000000000    -0.00000000000000    -0.10336364025521
   28     -0.00000000000000    -0.00000000000000     2.54522495302692
   29     -0.00000000000000    -0.00000000000000     2.64125088873777
 frms,max,avg= 7.4948893E-01 3.0417660E+00   0.000E+00  0.000E+00  0.000E+00 e/A
 length scales=  7.558904531543  7.558904531543 52.912331720798 bohr
              =  4.000000000000  4.000000000000 28.000000000000 angstroms
 prteigrs : about to open file tdfpt_03_MPI24o_EIG
 Fermi (or HOMO) energy (hartree) =   0.21489   Average Vxc (hartree)=  -0.36465
 Eigenvalues (hartree) for nkpt=   4  k points:
 kpt#   1, nband=120, wtk=  0.25000, kpt=  0.1250  0.1250  0.5000 (reduced coord)
  -1.97276  -1.97269  -1.95900  -1.95887  -1.95430  -1.95388  -1.95368  -1.17650
  -1.17635  -1.16931  -1.16930  -1.15894  -1.15892  -1.15881  -1.15880  -1.15687
  -1.15682  -1.15237  -1.15161  -1.15082  -1.15041  -1.15038  -1.15025  -1.15023
  -1.15016  -1.15001  -1.14954  -1.14953  -0.73095  -0.72952  -0.72750  -0.72556
  -0.56434  -0.56432  -0.53188  -0.53159  -0.52758  -0.52622  -0.52549  -0.51101
  -0.51034  -0.50647  -0.50466  -0.50399  -0.50309  -0.50124  -0.48543  -0.48539
  -0.45810  -0.45808  -0.19458  -0.19446  -0.19243  -0.19141  -0.19136  -0.19071
  -0.18760  -0.18724  -0.18427  -0.18283  -0.17968  -0.17925  -0.00201  -0.00177
   0.01279   0.02355   0.02648   0.02803   0.04557   0.05305   0.05544   0.05859
   0.05940   0.06479   0.06495   0.06709   0.07115   0.07367   0.07415   0.07677
   0.08124   0.08155   0.08481   0.09030   0.09300   0.09550   0.09878   0.10109
   0.10281   0.10767   0.10866   0.11669   0.11998   0.12183   0.12605   0.13231
   0.13328   0.13400   0.13611   0.13811   0.14157   0.14225   0.14538   0.14727
   0.15018   0.15267   0.15576   0.15944   0.16210   0.16480   0.17201   0.17267
   0.17655   0.17680   0.19471   0.19479   0.29925   0.30113   0.30985   0.31108
 kpt#   2, nband=120, wtk=  0.25000, kpt=  0.3750  0.1250  0.5000 (reduced coord)
  -1.97238  -1.97220  -1.95861  -1.95851  -1.95369  -1.95355  -1.95346  -1.17718
  -1.17716  -1.17090  -1.17087  -1.15911  -1.15909  -1.15883  -1.15879  -1.15601
  -1.15596  -1.15231  -1.15153  -1.15131  -1.15123  -1.15105  -1.15103  -1.15030
  -1.15021  -1.15001  -1.14953  -1.14952  -0.72657  -0.72550  -0.72405  -0.72271
  -0.55192  -0.55185  -0.53284  -0.52973  -0.52418  -0.51882  -0.51638  -0.50863
  -0.50841  -0.50470  -0.50350  -0.50200  -0.50139  -0.49955  -0.48597  -0.48596
  -0.45839  -0.45826  -0.20019  -0.19986  -0.19613  -0.19547  -0.19203  -0.19038
  -0.18924  -0.18788  -0.18257  -0.18220  -0.18014  -0.17943  -0.02772  -0.02753
   0.00209   0.00232   0.00772   0.01666   0.02297   0.02574   0.02660   0.03090
   0.03236   0.03906   0.04694   0.04844   0.05235   0.05800   0.06177   0.06186
   0.06411   0.06798   0.07181   0.07638   0.07667   0.08128   0.08525   0.08708
   0.08948   0.09039   0.09120   0.09757   0.10356   0.11033   0.11474   0.12007
   0.12028   0.12601   0.13559   0.13837   0.14075   0.14234   0.14719   0.14820
   0.14929   0.15086   0.15783   0.15930   0.16218   0.16891   0.16976   0.17377
   0.17577   0.17683   0.19481   0.19500   0.32050   0.33317   0.33352   0.33903
 kpt#   3, nband=120, wtk=  0.25000, kpt=  0.1250  0.3750  0.5000 (reduced coord)
  -1.97249  -1.97228  -1.95851  -1.95846  -1.95369  -1.95356  -1.95346  -1.17641
  -1.17639  -1.16932  -1.16929  -1.15949  -1.15941  -1.15887  -1.15877  -1.15693
  -1.15689  -1.15231  -1.15153  -1.15105  -1.15095  -1.15090  -1.15082  -1.15045
  -1.15040  -1.15037  -1.15035  -1.15015  -0.72667  -0.72570  -0.72425  -0.72281
  -0.56403  -0.56402  -0.53335  -0.53147  -0.52839  -0.52508  -0.52009  -0.50920
  -0.50904  -0.50594  -0.50443  -0.50055  -0.49825  -0.49710  -0.47617  -0.47609
  -0.44842  -0.44835  -0.20115  -0.20092  -0.19682  -0.19633  -0.19255  -0.19058
  -0.18965  -0.18676  -0.18345  -0.18028  -0.17908  -0.17784  -0.00046  -0.00028
   0.00900   0.01722   0.02291   0.02521   0.02802   0.02982   0.03159   0.03532
   0.03698   0.03927   0.04104   0.04554   0.04980   0.05469   0.06253   0.06277
   0.06448   0.06729   0.07018   0.07033   0.07284   0.07511   0.07840   0.08195
   0.08645   0.09001   0.09360   0.09711   0.10029   0.10070   0.10462   0.10680
   0.11392   0.11600   0.12496   0.12818   0.13387   0.13470   0.13990   0.14456
   0.14547   0.14649   0.14884   0.14948   0.16045   0.17164   0.17393   0.17534
   0.18229   0.18304   0.19293   0.19299   0.30101   0.30472   0.32468   0.34078
 kpt#   4, nband=120, wtk=  0.25000, kpt=  0.3750  0.3750  0.5000 (reduced coord)
  -1.97189  -1.97182  -1.95810  -1.95807  -1.95341  -1.95312  -1.95280  -1.17700
  -1.17698  -1.17075  -1.17067  -1.15938  -1.15935  -1.15907  -1.15901  -1.15596
  -1.15591  -1.15208  -1.15168  -1.15128  -1.15116  -1.15095  -1.15093  -1.15086
  -1.15084  -1.15074  -1.15032  -1.15028  -0.72358  -0.72278  -0.72164  -0.72054
  -0.55170  -0.55169  -0.52646  -0.52496  -0.51942  -0.51437  -0.50975  -0.50453
  -0.50367  -0.50265  -0.50216  -0.50104  -0.49919  -0.49893  -0.47776  -0.47774
  -0.44808  -0.44799  -0.21597  -0.21589  -0.21074  -0.21046  -0.20751  -0.20373
  -0.20010  -0.19851  -0.19501  -0.19247  -0.18683  -0.17928  -0.02757  -0.02739
   0.00465   0.00526   0.00547   0.01210   0.01380   0.02467   0.02651   0.02697
   0.03027   0.03528   0.03614   0.03637   0.03731   0.03779   0.04252   0.04751
   0.04762   0.05276   0.05594   0.05778   0.06381   0.07048   0.07338   0.07363
   0.07858   0.07907   0.08518   0.08619   0.08687   0.08744   0.09093   0.09506
   0.10584   0.12298   0.12813   0.13438   0.13712   0.14705   0.15442   0.16135
   0.16283   0.16549   0.17017   0.17052   0.17562   0.17764   0.18390   0.18409
   0.18432   0.18535   0.21442   0.21489   0.32889   0.33062   0.35224   0.35258
 Total charge density [el/Bohr^3]
,     Maximum=    1.2169E+00  at reduced coord.    0.5000    0.5000    0.4375
,Next maximum=    1.2124E+00  at reduced coord.    0.5000    0.5000    0.5521
,     Minimum=    7.8853E-06  at reduced coord.    0.4667    0.3333    0.7865
,Next minimum=    7.8853E-06  at reduced coord.    0.5333    0.3333    0.7865
,  Integrated=    2.3200E+02

--------------------------------------------------------------------------------
 Components of total free energy (in Hartree) :

    Kinetic energy  =  3.54782887862765E+02
    Hartree energy  =  1.19765148945111E+03
    XC energy       = -1.32029493559055E+02
    Ewald energy    =  4.50522925486291E+02
    PspCore energy  =  1.73829889727092E+01
    Loc. psp. energy= -2.80469345344599E+03
    NL   psp  energy=  1.24845943276351E+02
    >>>>>>>>> Etotal= -7.91536711955819E+02

 Other information on the energy :
    Total energy(eV)= -2.15388093083120E+04 ; Band energy (Ha)=  -9.4455886912E+01
--------------------------------------------------------------------------------

 Cartesian components of stress tensor (hartree/bohr^3)
  sigma(1 1)=  7.13508258E-03  sigma(3 2)=  0.00000000E+00
  sigma(2 2)=  7.55157834E-03  sigma(3 1)=  0.00000000E+00
  sigma(3 3)=  6.95794947E-03  sigma(2 1)=  0.00000000E+00

-Cartesian components of stress tensor (GPa)         [Pressure= -2.1227E+02 GPa]
- sigma(1 1)=  2.09921342E+02  sigma(3 2)=  0.00000000E+00
- sigma(2 2)=  2.22175068E+02  sigma(3 1)=  0.00000000E+00
- sigma(3 3)=  2.04709906E+02  sigma(2 1)=  0.00000000E+00

== END DATASET(S) ==============================================================
================================================================================
  
 -outvars: echo values of variables after computation  --------
        accesswff           1
            acell      7.5589045315E+00  7.5589045315E+00  5.2912331721E+01 Bohr
              amu      1.37327000E+02  4.78800000E+01  1.59994000E+01
             ecut      1.50000000E+01 Hartree
           etotal     -7.9153671196E+02
            fcart     -1.4394731441E-32 -0.0000000000E+00  2.0101029371E-03
                      -1.4394731441E-32 -0.0000000000E+00 -4.9496748964E-02
                      -1.4394731441E-32 -0.0000000000E+00 -5.1364156255E-02
                      -1.4394731441E-32 -0.0000000000E+00 -8.6139621899E-03
                      -1.4394731441E-32 -0.0000000000E+00  5.9152936135E-02
                      -1.4394731441E-32 -0.0000000000E+00  2.1578710128E-02
                      -1.4394731441E-32 -0.0000000000E+00 -1.5390753669E-03
                      -1.4394731441E-32 -0.0000000000E+00  9.5312905855E-03
                      -1.4394731441E-32 -0.0000000000E+00 -3.3056261431E-03
                      -1.4394731441E-32 -0.0000000000E+00  1.2608380254E-03
                      -1.4394731441E-32 -0.0000000000E+00 -1.2950452446E-03
                      -1.4394731441E-32 -0.0000000000E+00 -1.5436465309E-04
                      -1.4394731441E-32 -0.0000000000E+00  1.5648352364E-03
                      -1.4394731441E-32 -0.0000000000E+00  9.5708881433E-19
                      -1.4394731441E-32 -0.0000000000E+00  9.5708881433E-19
                      -1.4394731441E-32 -0.0000000000E+00  9.5708881433E-19
                      -1.4394731441E-32 -0.0000000000E+00  1.5436465309E-04
                      -1.4394731441E-32 -0.0000000000E+00 -1.5648352364E-03
                       1.9432887445E-31 -0.0000000000E+00  3.3056261431E-03
                      -1.4394731441E-32 -0.0000000000E+00 -1.2608380254E-03
                      -1.4394731441E-32 -0.0000000000E+00  1.2950452446E-03
                      -1.4394731441E-32 -0.0000000000E+00  1.5390753669E-03
                       1.9432887445E-31 -0.0000000000E+00 -9.5312905855E-03
                      -1.4394731441E-32 -0.0000000000E+00  8.6139621899E-03
                      -1.4394731441E-32 -0.0000000000E+00 -5.9152936135E-02
                      -1.4394731441E-32 -0.0000000000E+00 -2.1578710128E-02
                      -1.4394731441E-32 -0.0000000000E+00 -2.0101029371E-03
                      -1.4394731441E-32 -0.0000000000E+00  4.9496748964E-02
                      -1.4394731441E-32 -0.0000000000E+00  5.1364156255E-02
-          fftalg         401
      fft_opt_lob           2
           iprcch           6
           iprcel          45
              ixc           3
              kpt      1.25000000E-01  1.25000000E-01  5.00000000E-01
                       3.75000000E-01  1.25000000E-01  5.00000000E-01
                       1.25000000E-01  3.75000000E-01  5.00000000E-01
                       3.75000000E-01  3.75000000E-01  5.00000000E-01
         kptrlatt        4    0    0      0    4    0      0    0    1
          kptrlen      3.02356181E+01
P           mkmem           1
            natom          29
            nband         120
            ngfft          30      30     192
             nkpt           4
-          npband           6
-           npkpt           4
            nstep          50
             nsym           8
           ntypat           3
              occ      2.000000  2.000000  2.000000  2.000000  2.000000  2.000000
                       2.000000  2.000000  2.000000  2.000000  2.000000  2.000000
                       2.000000  2.000000  2.000000  2.000000  2.000000  2.000000
                       2.000000  2.000000  2.000000  2.000000  2.000000  2.000000
                       2.000000  2.000000  2.000000  2.000000  2.000000  2.000000
                       2.000000  2.000000  2.000000  2.000000  2.000000  2.000000
                       2.000000  2.000000  2.000000  2.000000  2.000000  2.000000
                       2.000000  2.000000  2.000000  2.000000  2.000000  2.000000
                       2.000000  2.000000  2.000000  2.000000  2.000000  2.000000
                       2.000000  2.000000  2.000000  2.000000  2.000000  2.000000
                       2.000000  2.000000  2.000000  2.000000  2.000000  2.000000
                       2.000000  2.000000  2.000000  2.000000  2.000000  2.000000
                       2.000000  2.000000  2.000000  2.000000  2.000000  2.000000
                       2.000000  2.000000  2.000000  2.000000  2.000000  2.000000
                       2.000000  2.000000  2.000000  2.000000  2.000000  2.000000
                       2.000000  2.000000  2.000000  2.000000  2.000000  2.000000
                       2.000000  2.000000  2.000000  2.000000  2.000000  2.000000
                       2.000000  2.000000  2.000000  2.000000  2.000000  2.000000
                       2.000000  2.000000  2.000000  2.000000  2.000000  2.000000
                       2.000000  2.000000  0.000000  0.000000  0.000000  0.000000
           ortalg          -2
        paral_kgb           1
           prtden           0
           shiftk      5.00000000E-01  5.00000000E-01  5.00000000E-01
          spgroup          47
           strten      7.1350825753E-03  7.5515783448E-03  6.9579494653E-03
                       0.0000000000E+00  0.0000000000E+00  0.0000000000E+00
           symrel      1  0  0   0  1  0   0  0  1      -1  0  0   0 -1  0   0  0 -1
                      -1  0  0   0  1  0   0  0 -1       1  0  0   0 -1  0   0  0  1
                      -1  0  0   0 -1  0   0  0  1       1  0  0   0  1  0   0  0 -1
                       1  0  0   0 -1  0   0  0 -1      -1  0  0   0  1  0   0  0  1
            tnons      0.0000000  0.0000000  0.0000000     0.0000000  0.0000000 -0.4285714
                       0.0000000  0.0000000 -0.4285714     0.0000000  0.0000000  0.0000000
                       0.0000000  0.0000000  0.0000000     0.0000000  0.0000000 -0.4285714
                       0.0000000  0.0000000 -0.4285714     0.0000000  0.0000000  0.0000000
           tolwfr      1.00000000E-22
            typat      3  3  2  3  3  2  1  3  3  3  2  1  3  3  3  2  1  3  3  3
                       2  1  3  3  3  2  3  3  2
         wfoptalg          14
              wtk        0.25000    0.25000    0.25000    0.25000
           xangst      0.0000000000E+00  0.0000000000E+00 -2.2560597002E+00
                       2.0000000000E+00  2.0000000000E+00 -1.7358821218E+00
                       0.0000000000E+00  2.0000000000E+00 -1.9382320765E+00
                       2.0000000000E+00  0.0000000000E+00  3.4528873183E-01
                       0.0000000000E+00  2.0000000000E+00 -5.5854849961E-02
                       2.0000000000E+00  2.0000000000E+00  1.7294657512E-01
                       0.0000000000E+00  0.0000000000E+00  2.1069676394E+00
                       2.0000000000E+00  2.0000000000E+00  2.1255940918E+00
                       2.0000000000E+00  0.0000000000E+00  4.1033165069E+00
                       0.0000000000E+00  2.0000000000E+00  4.0568887933E+00
                       2.0000000000E+00  2.0000000000E+00  4.0843127188E+00
                       0.0000000000E+00  0.0000000000E+00  6.0394536283E+00
                       2.0000000000E+00  2.0000000000E+00  6.0414127394E+00
                       2.0000000000E+00  0.0000000000E+00  8.0000000001E+00
                       0.0000000000E+00  2.0000000000E+00  8.0000000001E+00
                       2.0000000000E+00  2.0000000000E+00  8.0000000001E+00
                       0.0000000000E+00  0.0000000000E+00  9.9605463718E+00
                       2.0000000000E+00  2.0000000000E+00  9.9585872607E+00
                       2.0000000000E+00  0.0000000000E+00  1.1896683493E+01
                       0.0000000000E+00  2.0000000000E+00  1.1943111207E+01
                       2.0000000000E+00  2.0000000000E+00  1.1915687281E+01
                       0.0000000000E+00  0.0000000000E+00  1.3893032361E+01
                       2.0000000000E+00  2.0000000000E+00  1.3874405908E+01
                       2.0000000000E+00  0.0000000000E+00  1.5654711268E+01
                       0.0000000000E+00  2.0000000000E+00  1.6055854850E+01
                       2.0000000000E+00  2.0000000000E+00  1.5827053425E+01
                       0.0000000000E+00  0.0000000000E+00  1.8256059700E+01
                       2.0000000000E+00  2.0000000000E+00  1.7735882122E+01
                       0.0000000000E+00  2.0000000000E+00  1.7938232077E+01
            xcart      0.0000000000E+00  0.0000000000E+00 -4.2633349728E+00
                       3.7794522658E+00  3.7794522658E+00 -3.2803418091E+00
                       0.0000000000E+00  3.7794522658E+00 -3.6627278066E+00
                       3.7794522658E+00  0.0000000000E+00  6.5250113994E-01
                       0.0000000000E+00  3.7794522658E+00 -1.0555036962E-01
                       3.7794522658E+00  3.7794522658E+00  3.2682166259E-01
                       0.0000000000E+00  0.0000000000E+00  3.9815918094E+00
                       3.7794522658E+00  3.7794522658E+00  4.0167907032E+00
                       3.7794522658E+00  0.0000000000E+00  7.7541444346E+00
                       0.0000000000E+00  3.7794522658E+00  7.6664087709E+00
                       3.7794522658E+00  3.7794522658E+00  7.7182324795E+00
                       0.0000000000E+00  0.0000000000E+00  1.1412913350E+01
                       3.7794522658E+00  3.7794522658E+00  1.1416615533E+01
                       3.7794522658E+00  0.0000000000E+00  1.5117809063E+01
                       0.0000000000E+00  3.7794522658E+00  1.5117809063E+01
                       3.7794522658E+00  3.7794522658E+00  1.5117809063E+01
                       0.0000000000E+00  0.0000000000E+00  1.8822704777E+01
                       3.7794522658E+00  3.7794522658E+00  1.8819002593E+01
                       3.7794522658E+00  0.0000000000E+00  2.2481473692E+01
                       0.0000000000E+00  3.7794522658E+00  2.2569209355E+01
                       3.7794522658E+00  3.7794522658E+00  2.2517385647E+01
                       0.0000000000E+00  0.0000000000E+00  2.6254026317E+01
                       3.7794522658E+00  3.7794522658E+00  2.6218827423E+01
                       3.7794522658E+00  0.0000000000E+00  2.9583116986E+01
                       0.0000000000E+00  3.7794522658E+00  3.0341168496E+01
                       3.7794522658E+00  3.7794522658E+00  2.9908796464E+01
                       0.0000000000E+00  0.0000000000E+00  3.4498953099E+01
                       3.7794522658E+00  3.7794522658E+00  3.3515959936E+01
                       0.0000000000E+00  3.7794522658E+00  3.3898345933E+01
             xred      0.0000000000E+00  0.0000000000E+00 -8.0573560721E-02
                       5.0000000000E-01  5.0000000000E-01 -6.1995790064E-02
                       0.0000000000E+00  5.0000000000E-01 -6.9222574162E-02
                       5.0000000000E-01  0.0000000000E+00  1.2331740423E-02
                       0.0000000000E+00  5.0000000000E-01 -1.9948160700E-03
                       5.0000000000E-01  5.0000000000E-01  6.1766633970E-03
                       0.0000000000E+00  0.0000000000E+00  7.5248844266E-02
                       5.0000000000E-01  5.0000000000E-01  7.5914074707E-02
                       5.0000000000E-01  0.0000000000E+00  1.4654701810E-01
                       0.0000000000E+00  5.0000000000E-01  1.4488888548E-01
                       5.0000000000E-01  5.0000000000E-01  1.4586831138E-01
                       0.0000000000E+00  0.0000000000E+00  2.1569477244E-01
                       5.0000000000E-01  5.0000000000E-01  2.1576474069E-01
                       5.0000000000E-01  0.0000000000E+00  2.8571428572E-01
                       0.0000000000E+00  5.0000000000E-01  2.8571428572E-01
                       5.0000000000E-01  5.0000000000E-01  2.8571428572E-01
                       0.0000000000E+00  0.0000000000E+00  3.5573379899E-01
                       5.0000000000E-01  5.0000000000E-01  3.5566383074E-01
                       5.0000000000E-01  0.0000000000E+00  4.2488155333E-01
                       0.0000000000E+00  5.0000000000E-01  4.2653968596E-01
                       5.0000000000E-01  5.0000000000E-01  4.2556026005E-01
                       0.0000000000E+00  0.0000000000E+00  4.9617972717E-01
                       5.0000000000E-01  5.0000000000E-01  4.9551449673E-01
                       5.0000000000E-01  0.0000000000E+00  5.5909683101E-01
                       0.0000000000E+00  5.0000000000E-01  5.7342338750E-01
                       5.0000000000E-01  5.0000000000E-01  5.6525190804E-01
                       0.0000000000E+00  0.0000000000E+00  6.5200213215E-01
                       5.0000000000E-01  5.0000000000E-01  6.3342436150E-01
                       0.0000000000E+00  5.0000000000E-01  6.4065114560E-01
            znucl       56.00000   22.00000    8.00000

================================================================================


- Timing analysis has been suppressed with timopt=0



================================================================================

 Suggested references for the acknowledgment of ABINIT usage.

 The users of ABINIT have little formal obligations with respect to the ABINIT group
 (those specified in the GNU General Public License, http://www.gnu.org/copyleft/gpl.txt).
 However, it is common practice in the scientific literature,
 to acknowledge the efforts of people that have made the research possible.
 In this spirit, please find below suggested citations of work written by ABINIT developers,
 corresponding to implementations inside of ABINIT that you have used in the present run.
 Note also that it will be of great value to readers of publications presenting these results,
 to read papers enabling them to understand the theoretical formalism and details
 of the ABINIT implementation.
 For information on why they are suggested, see also http://www.abinit.org/about/?text=acknowledgments.

 [1] Large scale ab initio calculations based on three levels of parallelization
 F. Bottin, S. Leroux, A. Knyazev, G. Zerah, Comput. Mat. Science 42, 329, (2008).
 Comment : in case paral_kgb is non-zero. Strong suggestion to cite this paper in your publications.
 This paper is also available at http://www.arxiv.org/abs/0707.3405

 [2] Preconditioning of self-consistent-field cycles in density functional theory : the extrapolar method
 P.-M. Anglade, X. Gonze, Phys. Rev. B 78, 045126 (2008).
 Comment : to be cited in case the extrapolar conditioner is used, i.e. non-vanishing iprcel.

 [3] ABINIT : First-principles approach of materials and nanosystem properties.
 X. Gonze, B. Amadon, P.-M. Anglade, J.-M. Beuken, F. Bottin, P. Boulanger, F. Bruneval,
 D. Caliste, R. Caracas, M. Cote, T. Deutsch, L. Genovese, Ph. Ghosez, M. Giantomassi
 S. Goedecker, D.R. Hamann, P. Hermet, F. Jollet, G. Jomard, S. Leroux, M. Mancini, S. Mazevet,
 M.J.T. Oliveira, G. Onida, Y. Pouillon, T. Rangel, G.-M. Rignanese, D. Sangalli, R. Shaltaf,
 M. Torrent, M.J. Verstraete, G. Zerah, J.W. Zwanziger
 Computer Phys. Comm. 180, 2582-2615 (2009).
 Comment : the third generic paper describing the ABINIT project.
 Note that a version of this paper, that is not formatted for Computer Phys. Comm. 
 is available at http://www.abinit.org/about/ABINIT_CPC_v10.pdf .
 The licence allows the authors to put it on the Web.

 [4] A brief introduction to the ABINIT software package.
 X. Gonze, G.-M. Rignanese, M. Verstraete, J.-M. Beuken, Y. Pouillon, R. Caracas, F. Jollet,
 M. Torrent, G. Zerah, M. Mikami, Ph. Ghosez, M. Veithen, J.-Y. Raty, V. Olevano, F. Bruneval,
 L. Reining, R. Godby, G. Onida, D.R. Hamann, and D.C. Allan.
 Z. Kristallogr. 220, 558-562 (2005).
 Comment : the second generic paper describing the ABINIT project. Note that this paper
 should be cited especially if you are using the GW part of ABINIT, as several authors
 of this part are not in the list of authors of the first or third paper.
 The .pdf of the latter paper is available at http://www.abinit.org/about/zfk_0505-06_558-562.pdf.
 Note that it should not redistributed (Copyright by Oldenburg Wissenshaftverlag,
 the licence allows the authors to put it on the Web).


 And optionally :

 [5] First-principles computation of material properties : the ABINIT software project. 
 X. Gonze, J.-M. Beuken, R. Caracas, F. Detraux, M. Fuchs, G.-M. Rignanese, L. Sindic,
 M. Verstraete, G. Zerah, F. Jollet, M. Torrent, A. Roy, M. Mikami, Ph. Ghosez, J.-Y. Raty, D.C. Allan.
 Computational Materials Science 25, 478-492 (2002). http://dx.doi.org/10.1016/S0927-0256(02)00325-7
 Comment : the original paper describing the ABINIT project.
-
- Proc.   0 individual time (sec): cpu=        384.7  wall=        385.8

================================================================================

 Calculation completed.
.Delivered    1 WARNINGs and   0 COMMENTs to log file.
+Overall time at end (sec) : cpu=       9237.5  wall=       9258.8
