
.Version 7.10.4 of ABINIT 
.(MPI version, prepared for a x86_64_linux_gnu4.6 computer) 

.Copyright (C) 1998-2014 ABINIT group . 
 ABINIT comes with ABSOLUTELY NO WARRANTY.
 It is free software, and you are welcome to redistribute it
 under certain conditions (GNU General Public License,
 see ~abinit/COPYING or http://www.gnu.org/copyleft/gpl.txt).

 ABINIT is a project of the Universite Catholique de Louvain,
 Corning Inc. and other collaborators, see ~abinit/doc/developers/contributors.txt .
 Please read ~abinit/doc/users/acknowledgments.html for suggested
 acknowledgments of the ABINIT effort.
 For more information, see http://www.abinit.org .

.Starting date : Mon  2 Feb 2015.
- ( at 02h15 )
  
- input  file    -> tdfpt_04.in
- output file    -> tdfpt_04_MPI24.out
- root for input  files -> tdfpt_04_MPI24i
- root for output files -> tdfpt_04_MPI24o


 Symmetries : space group Pm m m (# 47); Bravais oP (primitive ortho.)
================================================================================
 Values of the parameters that define the memory need of the present run (RF).
   intxc =         0    iscf =         7 xclevel =         1  lmnmax =         4
   lnmax =         4   mband =       120  mffmem =         1   mgfft =       192
P  mkmem =         1  mkqmem =         1  mk1mem =         1 mpssoang=         3
     mpw =      8428  mqgrid =      9226   natom =        29    nfft =    172800
    nkpt =        16  nloalg =         4  nspden =         1 nspinor =         1
  nsppol =         1    nsym =         8  n1xccc =      2501  ntypat =         3
  occopt =         1
================================================================================
P This job should need less than                     103.037 Mbytes of memory.
  Rough estimation (10% accuracy) of disk space for files :
_ WF disk file :    246.916 Mbytes ; DEN or POT disk file :      1.320 Mbytes.
================================================================================

--------------------------------------------------------------------------------
------------- Echo of variables that govern the present computation ------------
--------------------------------------------------------------------------------
-
- outvars: echo of selected default values                                      
-   accesswff0 =  0 , fftalg0 =312 , wfoptalg0 =  0
-
- outvars: echo of global parameters not present in the input file              
-  max_nthreads =    0
-
 -outvars: echo values of preprocessed input variables --------
            acell      7.5589045315E+00  7.5589045315E+00  5.2912331721E+01 Bohr
              amu      1.37327000E+02  4.78800000E+01  1.59994000E+01
             ecut      1.50000000E+01 Hartree
-          fftalg         312
           irdwfk           1
              ixc           3
              kpt      1.25000000E-01  1.25000000E-01  5.00000000E-01
                       3.75000000E-01  1.25000000E-01  5.00000000E-01
                      -3.75000000E-01  1.25000000E-01  5.00000000E-01
                      -1.25000000E-01  1.25000000E-01  5.00000000E-01
                       1.25000000E-01  3.75000000E-01  5.00000000E-01
                       3.75000000E-01  3.75000000E-01  5.00000000E-01
                      -3.75000000E-01  3.75000000E-01  5.00000000E-01
                      -1.25000000E-01  3.75000000E-01  5.00000000E-01
                       1.25000000E-01 -3.75000000E-01  5.00000000E-01
                       3.75000000E-01 -3.75000000E-01  5.00000000E-01
                      -3.75000000E-01 -3.75000000E-01  5.00000000E-01
                      -1.25000000E-01 -3.75000000E-01  5.00000000E-01
                       1.25000000E-01 -1.25000000E-01  5.00000000E-01
                       3.75000000E-01 -1.25000000E-01  5.00000000E-01
                      -3.75000000E-01 -1.25000000E-01  5.00000000E-01
                      -1.25000000E-01 -1.25000000E-01  5.00000000E-01
           kptopt           3
         kptrlatt        4    0    0      0    4    0      0    0    1
          kptrlen      3.02356181E+01
P           mkmem           1
P          mkqmem           1
P          mk1mem           1
            natom          29
            nband         120
            ngfft          30      30     192
             nkpt          16
             nqpt           1
            nstep          18
             nsym           8
           ntypat           3
              occ      2.000000  2.000000  2.000000  2.000000  2.000000  2.000000
                       2.000000  2.000000  2.000000  2.000000  2.000000  2.000000
                       2.000000  2.000000  2.000000  2.000000  2.000000  2.000000
                       2.000000  2.000000  2.000000  2.000000  2.000000  2.000000
                       2.000000  2.000000  2.000000  2.000000  2.000000  2.000000
                       2.000000  2.000000  2.000000  2.000000  2.000000  2.000000
                       2.000000  2.000000  2.000000  2.000000  2.000000  2.000000
                       2.000000  2.000000  2.000000  2.000000  2.000000  2.000000
                       2.000000  2.000000  2.000000  2.000000  2.000000  2.000000
                       2.000000  2.000000  2.000000  2.000000  2.000000  2.000000
                       2.000000  2.000000  2.000000  2.000000  2.000000  2.000000
                       2.000000  2.000000  2.000000  2.000000  2.000000  2.000000
                       2.000000  2.000000  2.000000  2.000000  2.000000  2.000000
                       2.000000  2.000000  2.000000  2.000000  2.000000  2.000000
                       2.000000  2.000000  2.000000  2.000000  2.000000  2.000000
                       2.000000  2.000000  2.000000  2.000000  2.000000  2.000000
                       2.000000  2.000000  2.000000  2.000000  2.000000  2.000000
                       2.000000  2.000000  2.000000  2.000000  2.000000  2.000000
                       2.000000  2.000000  2.000000  2.000000  2.000000  2.000000
                       2.000000  2.000000  0.000000  0.000000  0.000000  0.000000
        optdriver           1
           prtden           0
              qpt      0.00000000E+00  2.50000000E-01  0.00000000E+00
            rfdir           0       0       1
           rfphon           1
           shiftk      5.00000000E-01  5.00000000E-01  5.00000000E-01
          spgroup          47
           symrel      1  0  0   0  1  0   0  0  1      -1  0  0   0 -1  0   0  0 -1
                      -1  0  0   0  1  0   0  0 -1       1  0  0   0 -1  0   0  0  1
                      -1  0  0   0 -1  0   0  0  1       1  0  0   0  1  0   0  0 -1
                       1  0  0   0 -1  0   0  0 -1      -1  0  0   0  1  0   0  0  1
           timopt          -2
            tnons      0.0000000  0.0000000  0.0000000     0.0000000  0.0000000 -0.4285714
                       0.0000000  0.0000000 -0.4285714     0.0000000  0.0000000  0.0000000
                       0.0000000  0.0000000  0.0000000     0.0000000  0.0000000 -0.4285714
                       0.0000000  0.0000000 -0.4285714     0.0000000  0.0000000  0.0000000
           tolrde      0.00000000E+00
           tolwfr      1.00000000E-22
            typat      3  3  2  3  3  2  1  3  3  3  2  1  3  3  3  2  1  3  3  3
                       2  1  3  3  3  2  3  3  2
              wtk        0.06250    0.06250    0.06250    0.06250    0.06250    0.06250
                         0.06250    0.06250    0.06250    0.06250    0.06250    0.06250
                         0.06250    0.06250    0.06250    0.06250
           xangst      0.0000000000E+00  0.0000000000E+00 -2.2560597003E+00
                       2.0000000000E+00  2.0000000000E+00 -1.7358821221E+00
                       0.0000000000E+00  2.0000000000E+00 -1.9382320766E+00
                       2.0000000000E+00  0.0000000000E+00  3.4528873159E-01
                       0.0000000000E+00  2.0000000000E+00 -5.5854849972E-02
                       2.0000000000E+00  2.0000000000E+00  1.7294657522E-01
                       0.0000000000E+00  0.0000000000E+00  2.1069676394E+00
                       2.0000000000E+00  2.0000000000E+00  2.1255940917E+00
                       2.0000000000E+00  0.0000000000E+00  4.1033165071E+00
                       0.0000000000E+00  2.0000000000E+00  4.0568887931E+00
                       2.0000000000E+00  2.0000000000E+00  4.0843127188E+00
                       0.0000000000E+00  0.0000000000E+00  6.0394536284E+00
                       2.0000000000E+00  2.0000000000E+00  6.0414127393E+00
                       2.0000000000E+00  0.0000000000E+00  8.0000000000E+00
                       0.0000000000E+00  2.0000000000E+00  8.0000000000E+00
                       2.0000000000E+00  2.0000000000E+00  8.0000000000E+00
                       0.0000000000E+00  0.0000000000E+00  9.9605463720E+00
                       2.0000000000E+00  2.0000000000E+00  9.9585872606E+00
                       2.0000000000E+00  0.0000000000E+00  1.1896683493E+01
                       0.0000000000E+00  2.0000000000E+00  1.1943111207E+01
                       2.0000000000E+00  2.0000000000E+00  1.1915687281E+01
                       0.0000000000E+00  0.0000000000E+00  1.3893032361E+01
                       2.0000000000E+00  2.0000000000E+00  1.3874405908E+01
                       2.0000000000E+00  0.0000000000E+00  1.5654711268E+01
                       0.0000000000E+00  2.0000000000E+00  1.6055854850E+01
                       2.0000000000E+00  2.0000000000E+00  1.5827053425E+01
                       0.0000000000E+00  0.0000000000E+00  1.8256059700E+01
                       2.0000000000E+00  2.0000000000E+00  1.7735882122E+01
                       0.0000000000E+00  2.0000000000E+00  1.7938232077E+01
            xcart      0.0000000000E+00  0.0000000000E+00 -4.2633349730E+00
                       3.7794522658E+00  3.7794522658E+00 -3.2803418097E+00
                       0.0000000000E+00  3.7794522658E+00 -3.6627278067E+00
                       3.7794522658E+00  0.0000000000E+00  6.5250113947E-01
                       0.0000000000E+00  3.7794522658E+00 -1.0555036964E-01
                       3.7794522658E+00  3.7794522658E+00  3.2682166278E-01
                       0.0000000000E+00  0.0000000000E+00  3.9815918094E+00
                       3.7794522658E+00  3.7794522658E+00  4.0167907030E+00
                       3.7794522658E+00  0.0000000000E+00  7.7541444349E+00
                       0.0000000000E+00  3.7794522658E+00  7.6664087705E+00
                       3.7794522658E+00  3.7794522658E+00  7.7182324796E+00
                       0.0000000000E+00  0.0000000000E+00  1.1412913350E+01
                       3.7794522658E+00  3.7794522658E+00  1.1416615533E+01
                       3.7794522658E+00  0.0000000000E+00  1.5117809063E+01
                       0.0000000000E+00  3.7794522658E+00  1.5117809063E+01
                       3.7794522658E+00  3.7794522658E+00  1.5117809063E+01
                       0.0000000000E+00  0.0000000000E+00  1.8822704777E+01
                       3.7794522658E+00  3.7794522658E+00  1.8819002593E+01
                       3.7794522658E+00  0.0000000000E+00  2.2481473692E+01
                       0.0000000000E+00  3.7794522658E+00  2.2569209355E+01
                       3.7794522658E+00  3.7794522658E+00  2.2517385647E+01
                       0.0000000000E+00  0.0000000000E+00  2.6254026317E+01
                       3.7794522658E+00  3.7794522658E+00  2.6218827423E+01
                       3.7794522658E+00  0.0000000000E+00  2.9583116986E+01
                       0.0000000000E+00  3.7794522658E+00  3.0341168496E+01
                       3.7794522658E+00  3.7794522658E+00  2.9908796464E+01
                       0.0000000000E+00  0.0000000000E+00  3.4498953099E+01
                       3.7794522658E+00  3.7794522658E+00  3.3515959935E+01
                       0.0000000000E+00  3.7794522658E+00  3.3898345933E+01
             xred      0.0000000000E+00  0.0000000000E+00 -8.0573560725E-02
                       5.0000000000E-01  5.0000000000E-01 -6.1995790074E-02
                       0.0000000000E+00  5.0000000000E-01 -6.9222574163E-02
                       5.0000000000E-01  0.0000000000E+00  1.2331740414E-02
                       0.0000000000E+00  5.0000000000E-01 -1.9948160704E-03
                       5.0000000000E-01  5.0000000000E-01  6.1766634006E-03
                       0.0000000000E+00  0.0000000000E+00  7.5248844266E-02
                       5.0000000000E-01  5.0000000000E-01  7.5914074704E-02
                       5.0000000000E-01  0.0000000000E+00  1.4654701811E-01
                       0.0000000000E+00  5.0000000000E-01  1.4488888547E-01
                       5.0000000000E-01  5.0000000000E-01  1.4586831139E-01
                       0.0000000000E+00  0.0000000000E+00  2.1569477244E-01
                       5.0000000000E-01  5.0000000000E-01  2.1576474069E-01
                       5.0000000000E-01  0.0000000000E+00  2.8571428571E-01
                       0.0000000000E+00  5.0000000000E-01  2.8571428571E-01
                       5.0000000000E-01  5.0000000000E-01  2.8571428571E-01
                       0.0000000000E+00  0.0000000000E+00  3.5573379900E-01
                       5.0000000000E-01  5.0000000000E-01  3.5566383074E-01
                       5.0000000000E-01  0.0000000000E+00  4.2488155333E-01
                       0.0000000000E+00  5.0000000000E-01  4.2653968595E-01
                       5.0000000000E-01  5.0000000000E-01  4.2556026005E-01
                       0.0000000000E+00  0.0000000000E+00  4.9617972717E-01
                       5.0000000000E-01  5.0000000000E-01  4.9551449672E-01
                       5.0000000000E-01  0.0000000000E+00  5.5909683100E-01
                       0.0000000000E+00  5.0000000000E-01  5.7342338750E-01
                       5.0000000000E-01  5.0000000000E-01  5.6525190804E-01
                       0.0000000000E+00  0.0000000000E+00  6.5200213215E-01
                       5.0000000000E-01  5.0000000000E-01  6.3342436149E-01
                       0.0000000000E+00  5.0000000000E-01  6.4065114559E-01
            znucl       56.00000   22.00000    8.00000

================================================================================

 chkinp: Checking input parameters for consistency.

================================================================================
== DATASET  1 ==================================================================
-   nproc =   24

 Exchange-correlation functional for the present dataset will be:
  LDA: old Teter (4/91) fit to Ceperley-Alder data - ixc=3

 Real(R)+Recip(G) space primitive vectors, cartesian coordinates (Bohr,Bohr^-1):
 R(1)=  7.5589045  0.0000000  0.0000000  G(1)=  0.1322943  0.0000000  0.0000000
 R(2)=  0.0000000  7.5589045  0.0000000  G(2)=  0.0000000  0.1322943  0.0000000
 R(3)=  0.0000000  0.0000000 52.9123317  G(3)=  0.0000000  0.0000000  0.0188992
 Unit cell volume ucvol=  3.0232539E+03 bohr^3
 Angles (23,13,12)=  9.00000000E+01  9.00000000E+01  9.00000000E+01 degrees
 setup1 : take into account q-point for computing boxcut.

 getcut: wavevector=  0.0000  0.2500  0.0000  ngfft=  30  30 192
         ecut(hartree)=     15.000   => boxcut(ratio)=   2.08164

--- Pseudopotential description ------------------------------------------------
- pspini: atom type   1  psp file is /home/buildbot/ABINIT/cronos_gcc46_paral/trunk_7.10.4-training/tests/Psps_for_tests/56ba.psp_mod
- pspatm: opening atomic psp file    /home/buildbot/ABINIT/cronos_gcc46_paral/trunk_7.10.4-training/tests/Psps_for_tests/56ba.psp_mod
- Barium.ion 5s2.5p6.6s0.5d0 rcs=rcp=rcd=1.7 ecut=22/28
- 56.00000  10.00000    940000                znucl, zion, pspdat
    4    3    2    2      2001   0.00000      pspcod,pspxc,lmax,lloc,mmax,r2well
    0   0.000   0.000    2   1.6965489        l,e99.0,e99.9,nproj,rcpsp
   0.00000000   0.00000000   0.00000000   0.00000000     rms, ekb1, ekb2, epsatm
    1   0.000   0.000    2   1.6965489        l,e99.0,e99.9,nproj,rcpsp
   0.00000000   0.00000000   0.00000000   0.00000000     rms, ekb1, ekb2, epsatm
    2   0.000   0.000    0   1.6965489        l,e99.0,e99.9,nproj,rcpsp
   0.00000000   0.00000000   0.00000000   0.00000000     rms, ekb1, ekb2, epsatm
    0.00000000000000    0.00000000000000    0.00000000000000   rchrg,fchrg,qchrg
 pspatm: epsatm=   43.25917021
         --- l  ekb(1:nproj) -->
             0   -9.646692   27.266828
             1   -6.938476   21.148499
 pspatm: atomic psp has been read  and splines computed

- pspini: atom type   2  psp file is /home/buildbot/ABINIT/cronos_gcc46_paral/trunk_7.10.4-training/tests/Psps_for_tests/22ti.psp_mod
- pspatm: opening atomic psp file    /home/buildbot/ABINIT/cronos_gcc46_paral/trunk_7.10.4-training/tests/Psps_for_tests/22ti.psp_mod
- Titane.ion 3s2.3p6.4s0.3d2 rcd=1.65, rcs=rc0=1.25, ecut 32/54
- 22.00000  12.00000    940000                znucl, zion, pspdat
    4    3    2    2      2001   0.00000      pspcod,pspxc,lmax,lloc,mmax,r2well
    0   0.000   0.000    2   1.2533577        l,e99.0,e99.9,nproj,rcpsp
   0.00000000   0.00000000   0.00000000   0.00000000     rms, ekb1, ekb2, epsatm
    1   0.000   0.000    2   1.2533577        l,e99.0,e99.9,nproj,rcpsp
   0.00000000   0.00000000   0.00000000   0.00000000     rms, ekb1, ekb2, epsatm
    2   0.000   0.000    0   1.6491622        l,e99.0,e99.9,nproj,rcpsp
   0.00000000   0.00000000   0.00000000   0.00000000     rms, ekb1, ekb2, epsatm
    0.00000000000000    0.00000000000000    0.00000000000000   rchrg,fchrg,qchrg
 pspatm: epsatm=    4.67708954
         --- l  ekb(1:nproj) -->
             0    9.517316   -2.344682
             1    5.011406   -0.741179
 pspatm: atomic psp has been read  and splines computed

- pspini: atom type   3  psp file is /home/buildbot/ABINIT/cronos_gcc46_paral/trunk_7.10.4-training/tests/Psps_for_tests/8o.psp_mod
- pspatm: opening atomic psp file    /home/buildbot/ABINIT/cronos_gcc46_paral/trunk_7.10.4-training/tests/Psps_for_tests/8o.psp_mod
- 1.65bohr 35 hartree exncc psp for oxygen with core 19 june 1992
-  8.00000   6.00000    920619                znucl, zion, pspdat
    4    3    1    1      2001   0.00000      pspcod,pspxc,lmax,lloc,mmax,r2well
    0   0.000   0.000    2   1.6491622        l,e99.0,e99.9,nproj,rcpsp
   0.00000000   0.00000000   0.00000000   0.00000000     rms, ekb1, ekb2, epsatm
    1   0.000   0.000    0   1.6491622        l,e99.0,e99.9,nproj,rcpsp
   0.00000000   0.00000000   0.00000000   0.00000000     rms, ekb1, ekb2, epsatm
    1.00000000000000    0.95000909444395    0.44408665956870   rchrg,fchrg,qchrg
 pspatm: epsatm=    1.15255884
         --- l  ekb(1:nproj) -->
             0    7.721978   -1.904542
 pspatm: atomic psp has been read  and splines computed

   5.25531891E+04                                ecore*ucvol(ha*bohr**3)
--------------------------------------------------------------------------------

-inwffil : will read wavefunctions from disk file tdfpt_04_MPI24i_WFK
- newkpt: read input wf with ikpt,npw=   1    8428, make ikpt,npw=   1    8428


 ==>  initialize data related to q vector <== 

 The list of irreducible perturbations for this q vector is:
    1)    idir= 3    ipert=   1

================================================================================

--------------------------------------------------------------------------------
 Perturbation wavevector (in red.coord.)   0.000000  0.250000  0.000000
 Perturbation : displacement of atom   1   along direction   3
 Found     2 symmetries that leave the perturbation invariant.
 symkpt : the number of k-points, thanks to the symmetries,
 is reduced to     8 .

--------------------------------------------------------------------------------

-inwffil : will read wavefunctions from disk file tdfpt_04_MPI24i_WFK
- newkpt: read input wf with ikpt,npw=   1    8428, make ikpt,npw=   1    8428

--------------------------------------------------------------------------------

-inwffil : will read wavefunctions from disk file tdfpt_04_MPI24i_WFK
- newkpt: read input wf with ikpt,npw=   3    8390, make ikpt,npw=   1    8390

 Initialisation of the first-order wave-functions :
  ireadwf=   0
P newkpt: treating     40 bands with npw=    8390 for ikpt=   1 by node    2
P newkpt: treating     40 bands with npw=    8356 for ikpt=   2 by node    5
P newkpt: treating     40 bands with npw=    8390 for ikpt=   3 by node    8
P newkpt: treating     40 bands with npw=    8356 for ikpt=   4 by node   11
P newkpt: treating     40 bands with npw=    8428 for ikpt=   5 by node   14
P newkpt: treating     40 bands with npw=    8390 for ikpt=   6 by node   17
P newkpt: treating     40 bands with npw=    8428 for ikpt=   7 by node   20
P newkpt: treating     40 bands with npw=    8390 for ikpt=   8 by node   23


     iter   2DEtotal(Ha)        deltaE(Ha) residm    vres2
-ETOT  1   32452.643338467     -7.833E+04 4.247E+02 1.358E+08
 ETOT  2   3334.8444046824     -2.912E+04 9.292E+01 3.209E+07
 ETOT  3   1432.3509986596     -1.902E+03 1.011E+02 1.735E+07
 ETOT  4   500.72480379039     -9.316E+02 3.661E+01 5.117E+06
 ETOT  5   220.38707857817     -2.803E+02 3.109E+01 3.491E+06
 ETOT  6   82.252470275720     -1.381E+02 1.738E+01 1.691E+06
 ETOT  7   64.778057450922     -1.747E+01 2.447E+01 1.212E+06
 ETOT  8   48.426627094536     -1.635E+01 5.170E+00 8.869E+05
 ETOT  9   34.493765804959     -1.393E+01 4.327E+00 5.218E+05
 ETOT 10   23.867841104204     -1.063E+01 6.066E+00 1.999E+05
 ETOT 11   21.072619918878     -2.795E+00 7.148E+00 9.840E+04
 ETOT 12   17.144388363782     -3.928E+00 8.243E+00 2.857E+04
 ETOT 13   16.220935787713     -9.235E-01 1.153E+01 7.324E+03
 ETOT 14   15.906284935130     -3.147E-01 8.344E+00 3.781E+03
 ETOT 15   15.722528588229     -1.838E-01 1.211E+01 1.214E+03
 ETOT 16   15.662387704053     -6.014E-02 8.797E+00 3.033E+02
 ETOT 17   15.648676104856     -1.371E-02 1.353E+01 1.262E+02
 ETOT 18   15.640686876634     -7.989E-03 1.003E+01 3.414E+01

 scprqt:  WARNING -
  nstep=   18 was not enough SCF cycles to converge;
  maximum residual=  1.003E+01 exceeds tolwfr=  1.000E-22

================================================================================

 ----iterations are completed or convergence reached----

 Mean square residual over all n,k,spin=   1.4028E-02; max=  1.0027E+01
   0.1250  0.1250  0.5000    1  6.51510E-03 kpt; spin; max resid(k); each band:
  4.62E-08 3.83E-08 5.59E-09 5.07E-09 8.58E-09 1.29E-08 8.39E-09 8.56E-09
  9.51E-09 1.44E-08 9.54E-09 1.11E-08 1.18E-08 9.20E-09 6.39E-09 5.13E-09
  8.40E-09 4.78E-09 7.06E-09 5.61E-09 7.41E-09 7.02E-09 5.92E-09 4.99E-09
  3.50E-09 3.70E-09 6.43E-09 5.63E-09 1.28E-09 1.39E-09 1.22E-09 1.34E-09
  4.80E-08 8.55E-08 3.34E-08 3.69E-08 1.73E-08 2.39E-08 2.77E-08 2.59E-08
  2.23E-08 1.68E-08 1.60E-08 1.84E-08 1.57E-08 2.97E-08 3.72E-08 3.86E-08
  3.38E-07 2.19E-07 2.09E-08 2.41E-08 3.13E-08 3.22E-08 3.54E-08 2.82E-08
  2.84E-08 3.05E-08 2.28E-08 2.86E-08 2.15E-08 1.82E-08 3.15E-07 3.14E-07
  1.24E-07 4.28E-07 4.60E-07 3.39E-07 2.91E-07 7.32E-07 7.23E-07 4.79E-07
  5.32E-07 5.05E-07 6.83E-07 7.12E-07 9.46E-07 6.96E-07 7.70E-07 9.31E-07
  8.95E-07 8.27E-07 9.58E-07 8.87E-07 7.08E-07 1.38E-06 1.33E-06 4.46E-06
  4.68E-06 1.38E-06 1.90E-06 2.07E-06 1.56E-06 1.49E-06 1.96E-06 1.42E-06
  4.45E-06 4.97E-06 2.98E-06 4.46E-06 4.09E-06 3.52E-06 3.65E-06 2.26E-06
  3.47E-06 4.24E-06 4.61E-06 5.31E-06 6.37E-06 4.30E-06 6.00E-06 9.81E-06
  1.84E-05 1.76E-05 1.02E-05 1.01E-05 1.45E-03 6.52E-03 2.48E-03 6.46E-03
   0.3750  0.1250  0.5000    1  1.52215E-02 kpt; spin; max resid(k); each band:
  4.31E-08 4.06E-08 5.39E-09 4.79E-09 7.89E-09 7.45E-09 1.18E-08 5.26E-09
  1.48E-08 1.22E-08 1.05E-08 8.40E-09 9.75E-09 1.04E-08 1.10E-08 5.41E-09
  7.98E-09 4.81E-09 6.86E-09 6.56E-09 6.43E-09 3.40E-09 5.54E-09 5.59E-09
  5.41E-09 3.58E-09 8.67E-09 3.61E-09 1.09E-09 1.10E-09 9.35E-10 8.63E-10
  4.88E-08 5.65E-08 1.51E-08 1.91E-08 2.75E-08 4.11E-08 3.46E-08 4.33E-08
  4.84E-08 1.26E-08 2.90E-08 2.19E-08 2.49E-08 1.76E-08 3.11E-08 3.27E-08
  2.80E-07 1.99E-07 1.44E-08 1.71E-08 1.37E-08 1.92E-08 1.38E-08 2.45E-08
  2.08E-08 2.42E-08 2.42E-08 2.10E-08 1.97E-08 2.12E-08 4.33E-07 4.29E-07
  3.30E-07 3.14E-07 1.07E-07 2.20E-07 1.03E-07 3.71E-07 5.06E-07 3.11E-07
  2.71E-07 4.19E-07 3.36E-07 7.48E-07 9.96E-07 8.95E-07 8.84E-07 8.95E-07
  8.75E-07 6.99E-07 7.02E-07 6.22E-07 7.99E-07 7.44E-07 8.82E-07 1.14E-06
  1.32E-06 1.49E-06 9.93E-07 1.13E-06 1.29E-06 1.18E-06 1.69E-06 8.52E-06
  9.24E-06 2.01E-06 3.90E-06 3.30E-06 4.55E-06 3.49E-06 3.65E-06 4.82E-06
  5.32E-06 3.91E-06 5.41E-06 5.55E-06 1.47E-06 4.42E-06 4.61E-06 4.00E-06
  9.72E-06 1.16E-05 1.32E-05 1.32E-05 1.23E-03 9.50E-03 1.52E-02 1.24E-02
   0.1250  0.3750  0.5000    1  7.42719E-01 kpt; spin; max resid(k); each band:
  4.20E-08 3.97E-08 6.64E-09 5.43E-09 7.58E-09 8.48E-09 1.09E-08 5.53E-09
  1.40E-08 1.20E-08 1.02E-08 1.03E-08 9.08E-09 6.90E-09 6.60E-09 4.68E-09
  8.85E-09 5.04E-09 6.69E-09 5.63E-09 5.12E-09 5.77E-09 4.78E-09 6.62E-09
  6.73E-09 6.52E-09 5.91E-09 3.14E-09 1.97E-09 1.76E-09 1.32E-09 1.04E-09
  2.22E-08 6.26E-08 1.64E-08 3.17E-08 3.92E-08 3.73E-08 2.30E-08 2.34E-08
  2.26E-08 1.16E-08 2.10E-08 4.77E-08 5.85E-08 5.70E-08 4.07E-08 4.08E-08
  2.29E-07 2.09E-07 7.90E-09 9.19E-09 1.19E-08 1.02E-08 1.10E-08 1.38E-08
  8.82E-09 1.61E-08 1.48E-08 7.09E-09 1.48E-08 9.77E-09 3.05E-07 3.19E-07
  2.13E-07 3.62E-07 4.45E-07 5.95E-07 5.36E-07 7.35E-07 8.69E-07 5.23E-07
  6.16E-07 8.35E-07 1.01E-06 6.76E-07 6.58E-07 7.35E-07 3.94E-07 1.20E-06
  8.77E-07 7.37E-07 1.97E-06 5.73E-06 3.83E-06 4.25E-07 7.24E-07 8.91E-07
  5.61E-07 5.56E-07 6.89E-07 1.29E-06 4.98E-07 1.13E-06 1.65E-06 9.25E-07
  1.59E-06 7.12E-07 4.54E-07 9.90E-07 1.72E-06 2.04E-06 9.84E-07 1.06E-06
  1.12E-06 6.51E-07 7.78E-07 1.06E-06 2.32E-06 4.94E-06 6.69E-06 5.09E-06
  8.08E-06 8.11E-06 5.41E-06 5.61E-06 1.61E-03 4.12E-03 2.31E-02 7.43E-01
   0.3750  0.3750  0.5000    1  2.52491E-02 kpt; spin; max resid(k); each band:
  3.94E-08 3.55E-08 6.73E-09 4.41E-09 7.47E-09 1.07E-08 8.95E-09 5.15E-09
  1.80E-08 1.08E-08 1.01E-08 8.13E-09 8.36E-09 6.75E-09 6.34E-09 5.48E-09
  7.82E-09 4.54E-09 6.30E-09 6.29E-09 6.53E-09 3.90E-09 5.84E-09 5.82E-09
  5.74E-09 4.36E-09 5.84E-09 5.79E-09 1.12E-09 1.18E-09 1.13E-09 1.04E-09
  1.69E-08 3.79E-08 1.68E-08 2.38E-08 3.49E-08 4.60E-08 4.26E-08 3.42E-08
  2.52E-08 2.22E-08 2.91E-08 4.17E-08 5.38E-08 4.58E-08 3.85E-08 3.84E-08
  2.50E-07 2.03E-07 1.13E-08 7.69E-09 1.16E-08 1.15E-08 1.05E-08 1.58E-08
  1.60E-08 7.36E-09 1.74E-08 1.55E-08 1.47E-08 1.83E-08 4.15E-07 4.02E-07
  1.24E-07 3.65E-07 3.63E-07 2.53E-07 2.61E-07 6.01E-07 8.81E-07 7.45E-07
  6.29E-07 6.19E-07 7.14E-07 5.41E-07 7.40E-07 7.27E-07 5.29E-07 8.73E-07
  7.95E-07 4.30E-07 1.25E-06 1.22E-06 6.91E-07 1.16E-06 5.75E-06 6.97E-06
  1.60E-06 1.09E-06 4.14E-07 4.16E-07 5.94E-07 5.34E-07 7.04E-07 8.38E-07
  1.11E-06 1.09E-06 1.10E-06 8.68E-07 3.40E-07 1.67E-06 1.32E-06 3.80E-06
  6.47E-06 4.38E-06 1.64E-06 1.56E-06 9.10E-07 1.82E-06 6.58E-06 4.24E-06
  6.55E-06 3.56E-06 8.88E-06 9.12E-06 9.93E-03 5.74E-03 2.47E-02 2.52E-02
   0.1250 -0.3750  0.5000    1  1.00266E+01 kpt; spin; max resid(k); each band:
  4.39E-08 4.23E-08 7.75E-09 6.31E-09 8.25E-09 7.13E-09 1.37E-08 4.28E-09
  1.28E-08 1.02E-08 9.48E-09 1.26E-08 1.25E-08 5.64E-09 4.91E-09 4.54E-09
  8.73E-09 4.28E-09 6.77E-09 6.10E-09 8.07E-09 8.75E-09 6.93E-09 9.11E-09
  7.21E-09 8.54E-09 9.58E-09 3.20E-09 2.21E-09 1.70E-09 1.23E-09 9.17E-10
  2.07E-08 1.02E-07 1.54E-08 3.37E-08 4.43E-08 3.47E-08 2.15E-08 2.99E-08
  2.85E-08 1.41E-08 2.55E-08 8.21E-08 9.95E-08 9.13E-08 1.05E-07 1.05E-07
  4.34E-07 3.61E-07 2.44E-08 2.35E-08 2.17E-08 2.25E-08 2.14E-08 2.90E-08
  1.81E-08 2.55E-08 1.66E-08 1.99E-08 3.65E-08 2.84E-08 4.12E-07 4.29E-07
  3.29E-07 5.93E-07 3.64E-07 6.96E-07 6.50E-07 7.92E-07 9.72E-07 5.53E-07
  7.55E-07 8.34E-07 9.81E-07 1.07E-06 5.67E-07 1.24E-06 7.14E-07 1.51E-06
  9.48E-07 1.13E-06 2.19E-06 3.69E-06 2.94E-06 6.19E-07 1.11E-06 1.05E-06
  9.37E-07 1.23E-06 1.16E-06 1.51E-06 1.34E-06 1.46E-06 2.02E-06 1.40E-06
  2.46E-06 9.92E-07 1.41E-06 3.10E-06 3.45E-06 3.75E-06 2.37E-06 1.89E-06
  3.08E-06 2.45E-06 3.44E-06 2.51E-06 1.05E-05 1.14E-05 1.16E-05 1.04E-05
  1.81E-05 1.72E-05 1.54E-05 1.46E-05 4.85E-02 4.75E-02 4.75E-02 1.00E+01
   0.3750 -0.3750  0.5000    1  7.12020E-01 kpt; spin; max resid(k); each band:
  4.03E-08 3.65E-08 7.41E-09 4.96E-09 8.24E-09 1.22E-08 7.72E-09 4.43E-09
  1.42E-08 1.09E-08 9.81E-09 1.36E-08 1.27E-08 7.08E-09 6.94E-09 5.95E-09
  7.74E-09 4.80E-09 4.48E-09 6.33E-09 5.98E-09 4.52E-09 5.10E-09 8.49E-09
  8.08E-09 4.67E-09 9.92E-09 9.64E-09 8.65E-10 8.99E-10 8.95E-10 9.45E-10
  2.05E-08 7.56E-08 1.59E-08 2.87E-08 3.82E-08 4.62E-08 4.47E-08 3.85E-08
  3.34E-08 2.10E-08 3.66E-08 6.86E-08 8.36E-08 8.48E-08 1.06E-07 1.04E-07
  4.35E-07 3.43E-07 1.98E-08 3.03E-08 2.61E-08 1.84E-08 2.40E-08 1.57E-08
  1.77E-08 1.84E-08 1.85E-08 1.51E-08 1.95E-08 1.53E-08 4.98E-07 4.88E-07
  2.77E-07 4.14E-07 4.53E-07 5.23E-07 2.94E-07 5.95E-07 8.28E-07 7.56E-07
  6.38E-07 4.90E-07 6.59E-07 3.91E-07 7.50E-07 5.10E-07 5.44E-07 1.21E-06
  1.25E-06 3.86E-07 9.78E-07 7.68E-07 5.67E-07 9.45E-07 3.01E-06 3.47E-06
  9.26E-07 8.09E-07 5.59E-07 5.95E-07 5.47E-07 4.01E-07 5.19E-07 6.18E-07
  1.04E-06 6.33E-07 1.05E-06 1.60E-06 1.09E-06 3.35E-06 1.78E-06 5.77E-06
  5.55E-06 6.75E-06 1.59E-06 4.58E-06 4.46E-06 7.37E-06 1.17E-05 9.62E-06
  1.13E-05 6.14E-06 8.04E-06 8.24E-06 2.85E-02 4.14E-02 5.98E-01 7.12E-01
   0.1250 -0.1250  0.5000    1  2.86928E-01 kpt; spin; max resid(k); each band:
  4.44E-08 3.89E-08 6.43E-09 5.92E-09 9.13E-09 1.41E-08 7.16E-09 1.06E-08
  1.23E-08 1.23E-08 8.42E-09 1.44E-08 1.56E-08 8.95E-09 5.11E-09 4.99E-09
  8.60E-09 5.29E-09 7.68E-09 6.37E-09 6.96E-09 6.98E-09 9.41E-09 7.93E-09
  4.51E-09 4.38E-09 1.18E-08 9.15E-09 8.28E-10 1.06E-09 1.02E-09 1.20E-09
  5.22E-08 9.21E-08 3.54E-08 3.96E-08 2.17E-08 2.45E-08 2.62E-08 3.19E-08
  3.03E-08 2.32E-08 2.88E-08 3.66E-08 3.01E-08 3.34E-08 8.48E-08 8.68E-08
  4.46E-07 2.50E-07 4.26E-08 4.02E-08 4.54E-08 4.06E-08 3.73E-08 4.69E-08
  2.37E-08 4.56E-08 2.87E-08 5.25E-08 5.13E-08 3.82E-08 4.44E-07 4.29E-07
  2.52E-07 4.81E-07 5.77E-07 5.29E-07 6.11E-07 1.05E-06 1.10E-06 1.03E-06
  1.14E-06 7.88E-07 1.33E-06 2.24E-06 2.31E-06 1.58E-06 1.73E-06 2.22E-06
  1.34E-06 1.40E-06 1.74E-06 1.29E-06 1.62E-06 1.97E-06 3.91E-06 5.04E-06
  4.73E-06 3.85E-06 6.61E-06 6.25E-06 1.04E-05 7.16E-06 7.50E-06 4.75E-06
  6.93E-06 8.08E-06 4.00E-06 5.90E-06 1.31E-05 9.52E-06 5.41E-06 6.74E-06
  9.69E-06 6.71E-06 7.60E-06 9.38E-06 1.30E-05 5.54E-06 2.51E-05 1.47E-05
  1.93E-05 2.22E-05 5.49E-05 5.52E-05 2.87E-01 2.34E-01 2.84E-02 1.78E-01
   0.3750 -0.1250  0.5000    1  1.06532E-01 kpt; spin; max resid(k); each band:
  4.05E-08 3.80E-08 6.20E-09 5.49E-09 8.32E-09 7.22E-09 1.31E-08 5.34E-09
  1.10E-08 1.13E-08 1.02E-08 1.12E-08 1.30E-08 1.52E-08 1.68E-08 6.09E-09
  7.37E-09 4.49E-09 5.12E-09 6.79E-09 6.73E-09 3.61E-09 4.35E-09 9.01E-09
  8.73E-09 2.94E-09 1.44E-08 3.66E-09 7.90E-10 7.68E-10 7.09E-10 7.61E-10
  5.23E-08 5.90E-08 1.60E-08 2.49E-08 3.67E-08 4.76E-08 4.27E-08 5.08E-08
  5.68E-08 2.55E-08 3.84E-08 3.93E-08 4.24E-08 2.17E-08 6.92E-08 8.16E-08
  4.35E-07 3.60E-07 1.31E-08 1.49E-08 2.71E-08 1.46E-08 3.74E-08 3.36E-08
  2.93E-08 2.18E-08 4.92E-08 2.98E-08 3.34E-08 2.82E-08 4.93E-07 4.86E-07
  3.79E-07 4.05E-07 2.05E-07 3.56E-07 2.70E-07 3.75E-07 4.52E-07 3.03E-07
  2.63E-07 3.14E-07 3.81E-07 6.18E-07 1.08E-06 1.03E-06 1.93E-06 1.75E-06
  7.77E-07 1.29E-06 1.33E-06 9.89E-07 1.76E-06 1.10E-06 9.35E-07 1.79E-06
  1.43E-06 1.43E-06 1.38E-06 3.81E-06 5.12E-06 1.79E-06 4.35E-06 7.70E-06
  7.50E-06 2.81E-06 4.71E-06 3.68E-06 5.04E-06 5.83E-06 3.33E-06 7.09E-06
  6.08E-06 6.53E-06 6.23E-06 7.34E-06 2.46E-06 5.40E-06 5.24E-06 5.14E-06
  1.19E-05 1.55E-05 2.40E-05 2.90E-05 1.17E-02 1.07E-01 9.30E-02 8.47E-02

 Thirteen components of 2nd-order total energy (hartree) are
 1,2,3: 0th-order hamiltonian combined with 1st-order wavefunctions
     kin0=   1.31215450E+05 eigvalue=  -3.67290182E+03  local=  -6.70634647E+04
 4,5,6: 1st-order hamiltonian combined with 1st and 0th-order wfs
 loc psp =  -1.17943855E+05  Hartree=   2.51270909E+04     xc=  -5.56950338E+03
 note that "loc psp" includes a xc core correction that could be resolved
 7,8,9: eventually, occupation + non-local contributions
    edocc=   1.45678400E+02     enl0=   3.05806836E+04   enl1=  -1.03581880E+05
 1-9 gives the relaxation energy (to be shifted if some occ is /=2.0)
   erelax=  -1.10762701E+05
 10,11,12 Non-relaxation  contributions : frozen-wavefunctions and Ewald
 fr.local=   5.85215520E+04 fr.nonlo=   5.28707098E+04  Ewald=  -6.22707873E+02
 13,14 Frozen wf xc core corrections (1) and (2)
 frxc 1  =  -6.60781096E+02  frxc 2 =   6.69568785E+02
 Resulting in :
 2DEtotal=    0.1564068688E+02 Ha. Also 2DEtotal=    0.425604734434E+03 eV
    (2DErelax=   -1.1076270095E+05 Ha. 2DEnonrelax=    1.1077834164E+05 Ha)
    (  non-var. 2DEtotal :    1.5474504043E+01 Ha)

================================================================================

 ---- first-order wavefunction calculations are completed ----


 ==> Compute Derivative Database <==
  
  2nd-order matrix (non-cartesian coordinates, masses not included,
   asr not included )
     j1       j2             matrix element
  dir pert dir pert     real part     imaginary part
  
   1    1   2    1         0.0000000000         0.0000000000
   1    1   3    1         0.0000000000        -0.0000000000
   1    1   2    2        -0.0000000000        -0.0000000000
   1    1   3    2        -0.0000000000         0.0000000000
   1    1   2    3         0.0000000000         0.0000000000
   1    1   3    3        -0.0000000000         0.0000000000
   1    1   2    4        -0.0000000000        -0.0000000000
   1    1   3    4         0.0000000000        -0.0000000000
   1    1   2    5         0.0000000000         0.0000000000
   1    1   3    5         0.0000000000        -0.0000000000
   1    1   2    6        -0.0000000000        -0.0000000000
   1    1   3    6        -0.0000000000         0.0000000000
   1    1   2    7        -0.0000000000        -0.0000000000
   1    1   3    7         0.0000000000        -0.0000000000
   1    1   2    8         0.0000000000         0.0000000000
   1    1   3    8         0.0000000000        -0.0000000000
   1    1   2    9        -0.0000000000         0.0000000000
   1    1   3    9         0.0000000000         0.0000000000
   1    1   2   10         0.0000000000         0.0000000000
   1    1   3   10         0.0000000000        -0.0000000000
   1    1   2   11        -0.0000000000        -0.0000000000
   1    1   3   11         0.0000000000        -0.0000000000
   1    1   2   12         0.0000000000         0.0000000000
   1    1   3   12        -0.0000000000        -0.0000000000
   1    1   2   13        -0.0000000000        -0.0000000000
   1    1   3   13         0.0000000000        -0.0000000000
   1    1   2   14        -0.0000000000        -0.0000000000
   1    1   3   14        -0.0000000000         0.0000000000
   1    1   2   15         0.0000000000         0.0000000000
   1    1   3   15         0.0000000000        -0.0000000000
   1    1   2   16        -0.0000000000        -0.0000000000
   1    1   3   16        -0.0000000000         0.0000000000
   1    1   2   17         0.0000000000        -0.0000000000
   1    1   3   17         0.0000000000         0.0000000000
   1    1   2   18        -0.0000000000         0.0000000000
   1    1   3   18        -0.0000000000         0.0000000000
   1    1   2   19         0.0000000000         0.0000000000
   1    1   3   19         0.0000000000         0.0000000000
   1    1   2   20        -0.0000000000         0.0000000000
   1    1   3   20        -0.0000000000         0.0000000000
   1    1   2   21         0.0000000000         0.0000000000
   1    1   3   21        -0.0000000000        -0.0000000000
   1    1   2   22        -0.0000000000         0.0000000000
   1    1   3   22         0.0000000000         0.0000000000
   1    1   2   23         0.0000000000         0.0000000000
   1    1   3   23         0.0000000000        -0.0000000000
   1    1   2   24        -0.0000000000         0.0000000000
   1    1   3   24         0.0000000000         0.0000000000
   1    1   2   25        -0.0000000000         0.0000000000
   1    1   3   25         0.0000000000         0.0000000000
   1    1   2   26        -0.0000000000         0.0000000000
   1    1   3   26        -0.0000000000         0.0000000000
   1    1   2   27         0.0000000000        -0.0000000000
   1    1   3   27         0.0000000000        -0.0000000000
   1    1   2   28         0.0000000000        -0.0000000000
   1    1   3   28         0.0000000000         0.0000000000
   1    1   2   29         0.0000000000         0.0000000000
   1    1   3   29        -0.0000000000         0.0000000000
  
   2    1   1    1         0.0000000000         0.0000000000
   2    1   3    1         0.0002756003         2.8571336867
   2    1   1    2        -0.0000000000        -0.0000000000
   2    1   1    3         0.0000000000         0.0000000000
   2    1   1    4        -0.0000000000        -0.0000000000
   2    1   1    5         0.0000000000         0.0000000000
   2    1   1    6        -0.0000000000        -0.0000000000
   2    1   1    7        -0.0000000000        -0.0000000000
   2    1   1    8         0.0000000000         0.0000000000
   2    1   1    9        -0.0000000000         0.0000000000
   2    1   1   10         0.0000000000         0.0000000000
   2    1   1   11        -0.0000000000        -0.0000000000
   2    1   1   12         0.0000000000         0.0000000000
   2    1   1   13        -0.0000000000        -0.0000000000
   2    1   1   14        -0.0000000000        -0.0000000000
   2    1   1   15         0.0000000000         0.0000000000
   2    1   1   16        -0.0000000000        -0.0000000000
   2    1   1   17         0.0000000000        -0.0000000000
   2    1   1   18        -0.0000000000         0.0000000000
   2    1   1   19         0.0000000000         0.0000000000
   2    1   1   20        -0.0000000000         0.0000000000
   2    1   1   21         0.0000000000         0.0000000000
   2    1   1   22        -0.0000000000         0.0000000000
   2    1   1   23         0.0000000000         0.0000000000
   2    1   1   24        -0.0000000000         0.0000000000
   2    1   1   25        -0.0000000000         0.0000000000
   2    1   1   26        -0.0000000000         0.0000000000
   2    1   1   27         0.0000000000        -0.0000000000
   2    1   3   27        -0.0001673877         0.3860808284
   2    1   1   28         0.0000000000        -0.0000000000
   2    1   1   29         0.0000000000         0.0000000000
  
   3    1   1    1         0.0000000000         0.0000000000
   3    1   2    1         0.0002756003        -2.8571336867
   3    1   3    1        15.4745040426         0.0000000000
   3    1   1    2         0.0000000000         0.0000000000
   3    1   2    2        -0.3835933514        -0.3839370495
   3    1   3    2        14.1931356476       -14.1934531583
   3    1   1    3         0.0000000000         0.0000000000
   3    1   2    3       -10.0702602046       -10.0704930284
   3    1   3    3       -92.8355693996        92.8341463089
   3    1   1    4         0.0000000000        -0.0000000000
   3    1   2    4         0.0003183200        -1.5278533735
   3    1   3    4       -20.4989983548        -0.0001161770
   3    1   1    5         0.0000000000         0.0000000000
   3    1   2    5        -0.8969313797        -0.8972461699
   3    1   3    5         3.0456582212        -3.0460125780
   3    1   1    6         0.0000000000         0.0000000000
   3    1   2    6         2.8208111353         2.8202531083
   3    1   3    6         6.3276350327        -6.3267671347
   3    1   1    7         0.0000000000        -0.0000000000
   3    1   2    7         0.0002396441         0.4873011344
   3    1   3    7         6.3158729244        -0.0010592894
   3    1   1    8         0.0000000000         0.0000000000
   3    1   2    8        -0.1874786701        -0.1876539511
   3    1   3    8        -0.8741407901         0.8718596417
   3    1   1    9        -0.0000000000        -0.0000000000
   3    1   2    9         0.0000884307        -0.1607504876
   3    1   3    9        -1.1238761501        -0.0007638365
   3    1   1   10        -0.0000000000        -0.0000000000
   3    1   2   10        -0.0948612674        -0.0949408166
   3    1   3   10        -0.3618587096         0.3606792261
   3    1   1   11        -0.0000000000         0.0000000000
   3    1   2   11         0.2966035525         0.2964105089
   3    1   3   11         2.9431284006        -2.9449105398
   3    1   1   12        -0.0000000000        -0.0000000000
   3    1   2   12        -0.0000198710         0.1371260960
   3    1   3   12         0.8235972075        -0.0005128367
   3    1   1   13        -0.0000000000         0.0000000000
   3    1   2   13        -0.0116134741        -0.0116064277
   3    1   3   13        -0.4436908523         0.4426383613
   3    1   1   14         0.0000000000         0.0000000000
   3    1   2   14        -0.0000340434        -0.0478550003
   3    1   3   14         0.1727534663        -0.0000707520
   3    1   1   15         0.0000000000         0.0000000000
   3    1   2   15        -0.0093440331        -0.0093086266
   3    1   3   15         0.1820593725        -0.1822579039
   3    1   1   16         0.0000000000        -0.0000000000
   3    1   2   16         0.0688222339         0.0688725357
   3    1   3   16         0.8838535137        -0.8839178077
   3    1   1   17        -0.0000000000        -0.0000000000
   3    1   2   17        -0.0000542255        -0.0952657944
   3    1   3   17         1.2278819246        -0.0003047336
   3    1   1   18        -0.0000000000         0.0000000000
   3    1   2   18        -0.0418597325        -0.0418045239
   3    1   3   18         0.2975074998        -0.2975955227
   3    1   1   19         0.0000000000        -0.0000000000
   3    1   2   19        -0.0000328425        -0.1191620903
   3    1   3   19         0.4908459641        -0.0003111021
   3    1   1   20         0.0000000000         0.0000000000
   3    1   2   20        -0.0910156782        -0.0909132738
   3    1   3   20         0.2571706804        -0.2577542091
   3    1   1   21        -0.0000000000         0.0000000000
   3    1   2   21        -0.2102194392        -0.2100375112
   3    1   3   21         1.0036748865        -1.0041257894
   3    1   1   22        -0.0000000000        -0.0000000000
   3    1   2   22        -0.0001080115        -0.3103482709
   3    1   3   22         0.5624556238        -0.0003174194
   3    1   1   23         0.0000000000         0.0000000000
   3    1   2   23        -0.1078303093        -0.1077049525
   3    1   3   23        -0.4565433079         0.4561633337
   3    1   1   24         0.0000000000        -0.0000000000
   3    1   2   24        -0.0001010207         0.0068555519
   3    1   3   24        -0.5652461459        -0.0001451940
   3    1   1   25        -0.0000000000         0.0000000000
   3    1   2   25        -0.0755026032        -0.0753463069
   3    1   3   25        -0.7994793627         0.7991907317
   3    1   1   26         0.0000000000         0.0000000000
   3    1   2   26        -0.3705079954        -0.3702647891
   3    1   3   26         0.8187259835        -0.8187121898
   3    1   1   27         0.0000000000        -0.0000000000
   3    1   2   27        -0.0001673877         0.3860808284
   3    1   3   27        -2.6587678456         0.0006065721
   3    1   1   28         0.0000000000        -0.0000000000
   3    1   2   28        -0.0190803747        -0.0189388139
   3    1   3   28        -1.1128176270         1.1127617923
   3    1   1   29         0.0000000000         0.0000000000
   3    1   2   29        -0.6865394095        -0.6863046144
   3    1   3   29         1.6319622376        -1.6312347004
  
   1    2   2    1        -0.0000000000         0.0000000000
   1    2   3    1         0.0000000000        -0.0000000000
   1    2   2    2         0.0000000000         0.0000000000
   1    2   3    2        -0.0000000000         0.0000000000
   1    2   2    3        -0.0000000000         0.0000000000
   1    2   3    3         0.0000000000        -0.0000000000
   1    2   2    4        -0.0000000000         0.0000000000
   1    2   3    4        -0.0000000000        -0.0000000000
   1    2   2    5        -0.0000000000        -0.0000000000
   1    2   3    5         0.0000000000         0.0000000000
   1    2   2    6         0.0000000000         0.0000000000
   1    2   3    6         0.0000000000        -0.0000000000
   1    2   2    7        -0.0000000000         0.0000000000
   1    2   3    7        -0.0000000000        -0.0000000000
   1    2   2    8         0.0000000000        -0.0000000000
   1    2   3    8        -0.0000000000        -0.0000000000
   1    2   2    9        -0.0000000000         0.0000000000
   1    2   3    9         0.0000000000         0.0000000000
   1    2   2   10        -0.0000000000         0.0000000000
   1    2   3   10         0.0000000000        -0.0000000000
   1    2   2   11         0.0000000000         0.0000000000
   1    2   3   11        -0.0000000000         0.0000000000
   1    2   2   12        -0.0000000000         0.0000000000
   1    2   3   12         0.0000000000         0.0000000000
   1    2   2   13         0.0000000000         0.0000000000
   1    2   3   13        -0.0000000000         0.0000000000
   1    2   2   14        -0.0000000000         0.0000000000
   1    2   3   14         0.0000000000         0.0000000000
   1    2   2   15        -0.0000000000         0.0000000000
   1    2   3   15         0.0000000000         0.0000000000
   1    2   2   16         0.0000000000         0.0000000000
   1    2   3   16         0.0000000000        -0.0000000000
   1    2   2   17         0.0000000000        -0.0000000000
   1    2   3   17         0.0000000000         0.0000000000
   1    2   2   18         0.0000000000        -0.0000000000
   1    2   3   18         0.0000000000        -0.0000000000
   1    2   2   19         0.0000000000        -0.0000000000
   1    2   3   19         0.0000000000        -0.0000000000
   1    2   2   20        -0.0000000000         0.0000000000
   1    2   3   20        -0.0000000000        -0.0000000000
   1    2   2   21        -0.0000000000        -0.0000000000
   1    2   3   21        -0.0000000000         0.0000000000
   1    2   2   22         0.0000000000        -0.0000000000
   1    2   3   22        -0.0000000000        -0.0000000000
   1    2   2   23        -0.0000000000        -0.0000000000
   1    2   3   23        -0.0000000000        -0.0000000000
   1    2   2   24        -0.0000000000        -0.0000000000
   1    2   3   24        -0.0000000000        -0.0000000000
   1    2   2   25         0.0000000000         0.0000000000
   1    2   3   25         0.0000000000         0.0000000000
   1    2   2   26        -0.0000000000         0.0000000000
   1    2   3   26         0.0000000000        -0.0000000000
   1    2   2   27         0.0000000000        -0.0000000000
   1    2   3   27         0.0000000000         0.0000000000
   1    2   2   28        -0.0000000000        -0.0000000000
   1    2   3   28        -0.0000000000        -0.0000000000
   1    2   2   29         0.0000000000        -0.0000000000
   1    2   3   29         0.0000000000         0.0000000000
  
   2    2   1    1        -0.0000000000         0.0000000000
   2    2   3    1        -0.3835933514         0.3839370495
   2    2   1    2         0.0000000000         0.0000000000
   2    2   1    3        -0.0000000000         0.0000000000
   2    2   1    4        -0.0000000000         0.0000000000
   2    2   1    5        -0.0000000000        -0.0000000000
   2    2   1    6         0.0000000000         0.0000000000
   2    2   1    7        -0.0000000000         0.0000000000
   2    2   1    8         0.0000000000        -0.0000000000
   2    2   1    9        -0.0000000000         0.0000000000
   2    2   1   10        -0.0000000000         0.0000000000
   2    2   1   11         0.0000000000         0.0000000000
   2    2   1   12        -0.0000000000         0.0000000000
   2    2   1   13         0.0000000000         0.0000000000
   2    2   1   14        -0.0000000000         0.0000000000
   2    2   1   15        -0.0000000000         0.0000000000
   2    2   1   16         0.0000000000         0.0000000000
   2    2   1   17         0.0000000000        -0.0000000000
   2    2   1   18         0.0000000000        -0.0000000000
   2    2   1   19         0.0000000000        -0.0000000000
   2    2   1   20        -0.0000000000         0.0000000000
   2    2   1   21        -0.0000000000        -0.0000000000
   2    2   1   22         0.0000000000        -0.0000000000
   2    2   1   23        -0.0000000000        -0.0000000000
   2    2   1   24        -0.0000000000        -0.0000000000
   2    2   1   25         0.0000000000         0.0000000000
   2    2   1   26        -0.0000000000         0.0000000000
   2    2   1   27         0.0000000000        -0.0000000000
   2    2   3   27         0.0189388139        -0.0190803747
   2    2   1   28        -0.0000000000        -0.0000000000
   2    2   1   29         0.0000000000        -0.0000000000
  
   3    2   1    1        -0.0000000000        -0.0000000000
   3    2   3    1        14.1931356476        14.1934531583
   3    2   1    2        -0.0000000000         0.0000000000
   3    2   1    3         0.0000000000        -0.0000000000
   3    2   1    4        -0.0000000000        -0.0000000000
   3    2   1    5         0.0000000000         0.0000000000
   3    2   1    6         0.0000000000        -0.0000000000
   3    2   1    7        -0.0000000000        -0.0000000000
   3    2   1    8        -0.0000000000        -0.0000000000
   3    2   1    9         0.0000000000         0.0000000000
   3    2   1   10         0.0000000000        -0.0000000000
   3    2   1   11        -0.0000000000         0.0000000000
   3    2   1   12         0.0000000000         0.0000000000
   3    2   1   13        -0.0000000000         0.0000000000
   3    2   1   14         0.0000000000         0.0000000000
   3    2   1   15         0.0000000000         0.0000000000
   3    2   1   16         0.0000000000        -0.0000000000
   3    2   1   17         0.0000000000         0.0000000000
   3    2   1   18         0.0000000000        -0.0000000000
   3    2   1   19         0.0000000000        -0.0000000000
   3    2   1   20        -0.0000000000        -0.0000000000
   3    2   1   21        -0.0000000000         0.0000000000
   3    2   1   22        -0.0000000000        -0.0000000000
   3    2   1   23        -0.0000000000        -0.0000000000
   3    2   1   24        -0.0000000000        -0.0000000000
   3    2   1   25         0.0000000000         0.0000000000
   3    2   1   26         0.0000000000        -0.0000000000
   3    2   1   27         0.0000000000         0.0000000000
   3    2   3   27        -1.1127617923        -1.1128176270
   3    2   1   28        -0.0000000000        -0.0000000000
   3    2   1   29         0.0000000000         0.0000000000
  
   1    3   2    1         0.0000000000        -0.0000000000
   1    3   3    1         0.0000000000        -0.0000000000
   1    3   2    2        -0.0000000000        -0.0000000000
   1    3   3    2         0.0000000000         0.0000000000
   1    3   2    3        -0.0000000000         0.0000000000
   1    3   3    3         0.0000000000         0.0000000000
   1    3   2    4         0.0000000000        -0.0000000000
   1    3   3    4         0.0000000000         0.0000000000
   1    3   2    5        -0.0000000000        -0.0000000000
   1    3   3    5         0.0000000000         0.0000000000
   1    3   2    6         0.0000000000        -0.0000000000
   1    3   3    6        -0.0000000000        -0.0000000000
   1    3   2    7        -0.0000000000         0.0000000000
   1    3   3    7        -0.0000000000        -0.0000000000
   1    3   2    8         0.0000000000        -0.0000000000
   1    3   3    8         0.0000000000         0.0000000000
   1    3   2    9         0.0000000000        -0.0000000000
   1    3   3    9         0.0000000000         0.0000000000
   1    3   2   10        -0.0000000000        -0.0000000000
   1    3   3   10         0.0000000000         0.0000000000
   1    3   2   11         0.0000000000         0.0000000000
   1    3   3   11        -0.0000000000        -0.0000000000
   1    3   2   12         0.0000000000        -0.0000000000
   1    3   3   12        -0.0000000000        -0.0000000000
   1    3   2   13        -0.0000000000         0.0000000000
   1    3   3   13         0.0000000000        -0.0000000000
   1    3   2   14         0.0000000000        -0.0000000000
   1    3   3   14        -0.0000000000        -0.0000000000
   1    3   2   15        -0.0000000000        -0.0000000000
   1    3   3   15         0.0000000000         0.0000000000
   1    3   2   16        -0.0000000000         0.0000000000
   1    3   3   16        -0.0000000000        -0.0000000000
   1    3   2   17        -0.0000000000        -0.0000000000
   1    3   3   17         0.0000000000        -0.0000000000
   1    3   2   18        -0.0000000000         0.0000000000
   1    3   3   18         0.0000000000         0.0000000000
   1    3   2   19        -0.0000000000         0.0000000000
   1    3   3   19         0.0000000000         0.0000000000
   1    3   2   20        -0.0000000000         0.0000000000
   1    3   3   20        -0.0000000000        -0.0000000000
   1    3   2   21         0.0000000000         0.0000000000
   1    3   3   21        -0.0000000000        -0.0000000000
   1    3   2   22        -0.0000000000         0.0000000000
   1    3   3   22         0.0000000000         0.0000000000
   1    3   2   23         0.0000000000         0.0000000000
   1    3   3   23         0.0000000000         0.0000000000
   1    3   2   24        -0.0000000000         0.0000000000
   1    3   3   24         0.0000000000         0.0000000000
   1    3   2   25        -0.0000000000         0.0000000000
   1    3   3   25         0.0000000000         0.0000000000
   1    3   2   26        -0.0000000000         0.0000000000
   1    3   3   26        -0.0000000000        -0.0000000000
   1    3   2   27         0.0000000000        -0.0000000000
   1    3   3   27        -0.0000000000         0.0000000000
   1    3   2   28         0.0000000000         0.0000000000
   1    3   3   28         0.0000000000        -0.0000000000
   1    3   2   29        -0.0000000000        -0.0000000000
   1    3   3   29        -0.0000000000         0.0000000000
  
   2    3   1    1         0.0000000000        -0.0000000000
   2    3   3    1       -10.0702602046        10.0704930284
   2    3   1    2        -0.0000000000        -0.0000000000
   2    3   1    3        -0.0000000000         0.0000000000
   2    3   1    4         0.0000000000        -0.0000000000
   2    3   1    5        -0.0000000000        -0.0000000000
   2    3   1    6         0.0000000000        -0.0000000000
   2    3   1    7        -0.0000000000         0.0000000000
   2    3   1    8         0.0000000000        -0.0000000000
   2    3   1    9         0.0000000000        -0.0000000000
   2    3   1   10        -0.0000000000        -0.0000000000
   2    3   1   11         0.0000000000         0.0000000000
   2    3   1   12         0.0000000000        -0.0000000000
   2    3   1   13        -0.0000000000         0.0000000000
   2    3   1   14         0.0000000000        -0.0000000000
   2    3   1   15        -0.0000000000        -0.0000000000
   2    3   1   16        -0.0000000000         0.0000000000
   2    3   1   17        -0.0000000000        -0.0000000000
   2    3   1   18        -0.0000000000         0.0000000000
   2    3   1   19        -0.0000000000         0.0000000000
   2    3   1   20        -0.0000000000         0.0000000000
   2    3   1   21         0.0000000000         0.0000000000
   2    3   1   22        -0.0000000000         0.0000000000
   2    3   1   23         0.0000000000         0.0000000000
   2    3   1   24        -0.0000000000         0.0000000000
   2    3   1   25        -0.0000000000         0.0000000000
   2    3   1   26        -0.0000000000         0.0000000000
   2    3   1   27         0.0000000000        -0.0000000000
   2    3   3   27         0.6863046144        -0.6865394095
   2    3   1   28         0.0000000000         0.0000000000
   2    3   1   29        -0.0000000000        -0.0000000000
  
   3    3   1    1        -0.0000000000        -0.0000000000
   3    3   3    1       -92.8355693996       -92.8341463089
   3    3   1    2         0.0000000000         0.0000000000
   3    3   1    3         0.0000000000         0.0000000000
   3    3   1    4         0.0000000000         0.0000000000
   3    3   1    5         0.0000000000         0.0000000000
   3    3   1    6        -0.0000000000        -0.0000000000
   3    3   1    7        -0.0000000000        -0.0000000000
   3    3   1    8         0.0000000000         0.0000000000
   3    3   1    9         0.0000000000         0.0000000000
   3    3   1   10         0.0000000000         0.0000000000
   3    3   1   11        -0.0000000000        -0.0000000000
   3    3   1   12        -0.0000000000        -0.0000000000
   3    3   1   13         0.0000000000        -0.0000000000
   3    3   1   14        -0.0000000000        -0.0000000000
   3    3   1   15         0.0000000000         0.0000000000
   3    3   1   16        -0.0000000000        -0.0000000000
   3    3   1   17         0.0000000000        -0.0000000000
   3    3   1   18         0.0000000000         0.0000000000
   3    3   1   19         0.0000000000         0.0000000000
   3    3   1   20        -0.0000000000        -0.0000000000
   3    3   1   21        -0.0000000000        -0.0000000000
   3    3   1   22         0.0000000000         0.0000000000
   3    3   1   23         0.0000000000         0.0000000000
   3    3   1   24         0.0000000000         0.0000000000
   3    3   1   25         0.0000000000         0.0000000000
   3    3   1   26        -0.0000000000        -0.0000000000
   3    3   1   27         0.0000000000         0.0000000000
   3    3   3   27         1.6312347004         1.6319622376
   3    3   1   28         0.0000000000        -0.0000000000
   3    3   1   29        -0.0000000000         0.0000000000
  
   1    4   2    1        -0.0000000000         0.0000000000
   1    4   3    1         0.0000000000         0.0000000000
   1    4   2    2        -0.0000000000        -0.0000000000
   1    4   3    2        -0.0000000000         0.0000000000
   1    4   2    3         0.0000000000         0.0000000000
   1    4   3    3         0.0000000000        -0.0000000000
   1    4   2    4        -0.0000000000         0.0000000000
   1    4   3    4         0.0000000000         0.0000000000
   1    4   2    5        -0.0000000000        -0.0000000000
   1    4   3    5         0.0000000000        -0.0000000000
   1    4   2    6         0.0000000000         0.0000000000
   1    4   3    6        -0.0000000000         0.0000000000
   1    4   2    7         0.0000000000         0.0000000000
   1    4   3    7        -0.0000000000        -0.0000000000
   1    4   2    8         0.0000000000         0.0000000000
   1    4   3    8         0.0000000000        -0.0000000000
   1    4   2    9         0.0000000000        -0.0000000000
   1    4   3    9        -0.0000000000         0.0000000000
   1    4   2   10        -0.0000000000        -0.0000000000
   1    4   3   10        -0.0000000000         0.0000000000
   1    4   2   11         0.0000000000         0.0000000000
   1    4   3   11        -0.0000000000         0.0000000000
   1    4   2   12        -0.0000000000        -0.0000000000
   1    4   3   12        -0.0000000000        -0.0000000000
   1    4   2   13        -0.0000000000        -0.0000000000
   1    4   3   13        -0.0000000000         0.0000000000
   1    4   2   14         0.0000000000         0.0000000000
   1    4   3   14        -0.0000000000        -0.0000000000
   1    4   2   15         0.0000000000        -0.0000000000
   1    4   3   15        -0.0000000000         0.0000000000
   1    4   2   16         0.0000000000         0.0000000000
   1    4   3   16        -0.0000000000         0.0000000000
   1    4   2   17        -0.0000000000         0.0000000000
   1    4   3   17        -0.0000000000         0.0000000000
   1    4   2   18         0.0000000000        -0.0000000000
   1    4   3   18         0.0000000000        -0.0000000000
   1    4   2   19         0.0000000000        -0.0000000000
   1    4   3   19         0.0000000000        -0.0000000000
   1    4   2   20         0.0000000000         0.0000000000
   1    4   3   20        -0.0000000000         0.0000000000
   1    4   2   21        -0.0000000000        -0.0000000000
   1    4   3   21         0.0000000000        -0.0000000000
   1    4   2   22         0.0000000000         0.0000000000
   1    4   3   22        -0.0000000000        -0.0000000000
   1    4   2   23        -0.0000000000        -0.0000000000
   1    4   3   23         0.0000000000        -0.0000000000
   1    4   2   24         0.0000000000        -0.0000000000
   1    4   3   24        -0.0000000000         0.0000000000
   1    4   2   25         0.0000000000        -0.0000000000
   1    4   3   25         0.0000000000        -0.0000000000
   1    4   2   26         0.0000000000         0.0000000000
   1    4   3   26         0.0000000000        -0.0000000000
   1    4   2   27         0.0000000000        -0.0000000000
   1    4   3   27         0.0000000000        -0.0000000000
   1    4   2   28        -0.0000000000        -0.0000000000
   1    4   3   28        -0.0000000000         0.0000000000
   1    4   2   29        -0.0000000000         0.0000000000
   1    4   3   29         0.0000000000        -0.0000000000
  
   2    4   1    1        -0.0000000000         0.0000000000
   2    4   3    1         0.0003183200         1.5278533735
   2    4   1    2        -0.0000000000        -0.0000000000
   2    4   1    3         0.0000000000         0.0000000000
   2    4   1    4        -0.0000000000         0.0000000000
   2    4   1    5        -0.0000000000        -0.0000000000
   2    4   1    6         0.0000000000         0.0000000000
   2    4   1    7         0.0000000000         0.0000000000
   2    4   1    8         0.0000000000         0.0000000000
   2    4   1    9         0.0000000000        -0.0000000000
   2    4   1   10        -0.0000000000        -0.0000000000
   2    4   1   11         0.0000000000         0.0000000000
   2    4   1   12        -0.0000000000        -0.0000000000
   2    4   1   13        -0.0000000000        -0.0000000000
   2    4   1   14         0.0000000000         0.0000000000
   2    4   1   15         0.0000000000        -0.0000000000
   2    4   1   16         0.0000000000         0.0000000000
   2    4   1   17        -0.0000000000         0.0000000000
   2    4   1   18         0.0000000000        -0.0000000000
   2    4   1   19         0.0000000000        -0.0000000000
   2    4   1   20         0.0000000000         0.0000000000
   2    4   1   21        -0.0000000000        -0.0000000000
   2    4   1   22         0.0000000000         0.0000000000
   2    4   1   23        -0.0000000000        -0.0000000000
   2    4   1   24         0.0000000000        -0.0000000000
   2    4   1   25         0.0000000000        -0.0000000000
   2    4   1   26         0.0000000000         0.0000000000
   2    4   1   27         0.0000000000        -0.0000000000
   2    4   3   27        -0.0001010207         0.0068555519
   2    4   1   28        -0.0000000000        -0.0000000000
   2    4   1   29        -0.0000000000         0.0000000000
  
   3    4   1    1         0.0000000000         0.0000000000
   3    4   3    1       -20.4989983548         0.0001161770
   3    4   1    2        -0.0000000000         0.0000000000
   3    4   1    3         0.0000000000        -0.0000000000
   3    4   1    4         0.0000000000         0.0000000000
   3    4   1    5         0.0000000000        -0.0000000000
   3    4   1    6        -0.0000000000         0.0000000000
   3    4   1    7        -0.0000000000        -0.0000000000
   3    4   1    8         0.0000000000        -0.0000000000
   3    4   1    9        -0.0000000000         0.0000000000
   3    4   1   10        -0.0000000000         0.0000000000
   3    4   1   11        -0.0000000000         0.0000000000
   3    4   1   12        -0.0000000000        -0.0000000000
   3    4   1   13        -0.0000000000         0.0000000000
   3    4   1   14        -0.0000000000        -0.0000000000
   3    4   1   15        -0.0000000000         0.0000000000
   3    4   1   16        -0.0000000000         0.0000000000
   3    4   1   17        -0.0000000000         0.0000000000
   3    4   1   18         0.0000000000        -0.0000000000
   3    4   1   19         0.0000000000        -0.0000000000
   3    4   1   20        -0.0000000000         0.0000000000
   3    4   1   21         0.0000000000        -0.0000000000
   3    4   1   22        -0.0000000000        -0.0000000000
   3    4   1   23         0.0000000000        -0.0000000000
   3    4   1   24        -0.0000000000         0.0000000000
   3    4   1   25         0.0000000000        -0.0000000000
   3    4   1   26         0.0000000000        -0.0000000000
   3    4   1   27         0.0000000000        -0.0000000000
   3    4   3   27        -0.5652461459        -0.0001451940
   3    4   1   28        -0.0000000000         0.0000000000
   3    4   1   29         0.0000000000        -0.0000000000
  
   1    5   2    1         0.0000000000        -0.0000000000
   1    5   3    1         0.0000000000        -0.0000000000
   1    5   2    2        -0.0000000000         0.0000000000
   1    5   3    2         0.0000000000        -0.0000000000
   1    5   2    3        -0.0000000000         0.0000000000
   1    5   3    3         0.0000000000        -0.0000000000
   1    5   2    4        -0.0000000000         0.0000000000
   1    5   3    4         0.0000000000         0.0000000000
   1    5   2    5        -0.0000000000         0.0000000000
   1    5   3    5         0.0000000000         0.0000000000
   1    5   2    6        -0.0000000000        -0.0000000000
   1    5   3    6        -0.0000000000        -0.0000000000
   1    5   2    7        -0.0000000000         0.0000000000
   1    5   3    7         0.0000000000         0.0000000000
   1    5   2    8        -0.0000000000        -0.0000000000
   1    5   3    8        -0.0000000000         0.0000000000
   1    5   2    9         0.0000000000        -0.0000000000
   1    5   3    9        -0.0000000000        -0.0000000000
   1    5   2   10        -0.0000000000        -0.0000000000
   1    5   3   10         0.0000000000        -0.0000000000
   1    5   2   11         0.0000000000        -0.0000000000
   1    5   3   11         0.0000000000        -0.0000000000
   1    5   2   12         0.0000000000        -0.0000000000
   1    5   3   12         0.0000000000         0.0000000000
   1    5   2   13         0.0000000000        -0.0000000000
   1    5   3   13         0.0000000000         0.0000000000
   1    5   2   14         0.0000000000        -0.0000000000
   1    5   3   14        -0.0000000000         0.0000000000
   1    5   2   15        -0.0000000000         0.0000000000
   1    5   3   15        -0.0000000000         0.0000000000
   1    5   2   16         0.0000000000        -0.0000000000
   1    5   3   16         0.0000000000        -0.0000000000
   1    5   2   17        -0.0000000000        -0.0000000000
   1    5   3   17         0.0000000000         0.0000000000
   1    5   2   18        -0.0000000000        -0.0000000000
   1    5   3   18         0.0000000000        -0.0000000000
   1    5   2   19         0.0000000000        -0.0000000000
   1    5   3   19        -0.0000000000        -0.0000000000
   1    5   2   20         0.0000000000         0.0000000000
   1    5   3   20        -0.0000000000         0.0000000000
   1    5   2   21         0.0000000000         0.0000000000
   1    5   3   21        -0.0000000000        -0.0000000000
   1    5   2   22        -0.0000000000         0.0000000000
   1    5   3   22        -0.0000000000         0.0000000000
   1    5   2   23        -0.0000000000         0.0000000000
   1    5   3   23         0.0000000000        -0.0000000000
   1    5   2   24        -0.0000000000         0.0000000000
   1    5   3   24        -0.0000000000         0.0000000000
   1    5   2   25         0.0000000000         0.0000000000
   1    5   3   25        -0.0000000000         0.0000000000
   1    5   2   26         0.0000000000        -0.0000000000
   1    5   3   26        -0.0000000000        -0.0000000000
   1    5   2   27        -0.0000000000        -0.0000000000
   1    5   3   27        -0.0000000000        -0.0000000000
   1    5   2   28         0.0000000000         0.0000000000
   1    5   3   28        -0.0000000000         0.0000000000
   1    5   2   29        -0.0000000000         0.0000000000
   1    5   3   29        -0.0000000000         0.0000000000
  
   2    5   1    1         0.0000000000        -0.0000000000
   2    5   3    1        -0.8969313797         0.8972461699
   2    5   1    2        -0.0000000000         0.0000000000
   2    5   1    3        -0.0000000000         0.0000000000
   2    5   1    4        -0.0000000000         0.0000000000
   2    5   1    5        -0.0000000000         0.0000000000
   2    5   1    6        -0.0000000000        -0.0000000000
   2    5   1    7        -0.0000000000         0.0000000000
   2    5   1    8        -0.0000000000        -0.0000000000
   2    5   1    9         0.0000000000        -0.0000000000
   2    5   1   10        -0.0000000000        -0.0000000000
   2    5   1   11         0.0000000000        -0.0000000000
   2    5   1   12         0.0000000000        -0.0000000000
   2    5   1   13         0.0000000000        -0.0000000000
   2    5   1   14         0.0000000000        -0.0000000000
   2    5   1   15        -0.0000000000         0.0000000000
   2    5   1   16         0.0000000000        -0.0000000000
   2    5   1   17        -0.0000000000        -0.0000000000
   2    5   1   18        -0.0000000000        -0.0000000000
   2    5   1   19         0.0000000000        -0.0000000000
   2    5   1   20         0.0000000000         0.0000000000
   2    5   1   21         0.0000000000         0.0000000000
   2    5   1   22        -0.0000000000         0.0000000000
   2    5   1   23        -0.0000000000         0.0000000000
   2    5   1   24        -0.0000000000         0.0000000000
   2    5   1   25         0.0000000000         0.0000000000
   2    5   1   26         0.0000000000        -0.0000000000
   2    5   1   27        -0.0000000000        -0.0000000000
   2    5   3   27         0.0753463069        -0.0755026032
   2    5   1   28         0.0000000000         0.0000000000
   2    5   1   29        -0.0000000000         0.0000000000
  
   3    5   1    1         0.0000000000         0.0000000000
   3    5   3    1         3.0456582212         3.0460125780
   3    5   1    2         0.0000000000        -0.0000000000
   3    5   1    3         0.0000000000        -0.0000000000
   3    5   1    4         0.0000000000         0.0000000000
   3    5   1    5         0.0000000000         0.0000000000
   3    5   1    6        -0.0000000000        -0.0000000000
   3    5   1    7         0.0000000000         0.0000000000
   3    5   1    8        -0.0000000000         0.0000000000
   3    5   1    9        -0.0000000000        -0.0000000000
   3    5   1   10         0.0000000000        -0.0000000000
   3    5   1   11         0.0000000000        -0.0000000000
   3    5   1   12         0.0000000000         0.0000000000
   3    5   1   13         0.0000000000         0.0000000000
   3    5   1   14        -0.0000000000         0.0000000000
   3    5   1   15        -0.0000000000         0.0000000000
   3    5   1   16         0.0000000000        -0.0000000000
   3    5   1   17         0.0000000000         0.0000000000
   3    5   1   18         0.0000000000        -0.0000000000
   3    5   1   19        -0.0000000000        -0.0000000000
   3    5   1   20        -0.0000000000         0.0000000000
   3    5   1   21        -0.0000000000        -0.0000000000
   3    5   1   22        -0.0000000000         0.0000000000
   3    5   1   23         0.0000000000        -0.0000000000
   3    5   1   24        -0.0000000000         0.0000000000
   3    5   1   25        -0.0000000000         0.0000000000
   3    5   1   26        -0.0000000000        -0.0000000000
   3    5   1   27         0.0000000000         0.0000000000
   3    5   3   27        -0.7991907317        -0.7994793627
   3    5   1   28        -0.0000000000         0.0000000000
   3    5   1   29        -0.0000000000         0.0000000000
  
   1    6   2    1        -0.0000000000         0.0000000000
   1    6   3    1         0.0000000000        -0.0000000000
   1    6   2    2         0.0000000000        -0.0000000000
   1    6   3    2         0.0000000000         0.0000000000
   1    6   2    3         0.0000000000         0.0000000000
   1    6   3    3        -0.0000000000         0.0000000000
   1    6   2    4         0.0000000000        -0.0000000000
   1    6   3    4        -0.0000000000        -0.0000000000
   1    6   2    5        -0.0000000000         0.0000000000
   1    6   3    5        -0.0000000000         0.0000000000
   1    6   2    6        -0.0000000000         0.0000000000
   1    6   3    6         0.0000000000        -0.0000000000
   1    6   2    7         0.0000000000        -0.0000000000
   1    6   3    7         0.0000000000         0.0000000000
   1    6   2    8         0.0000000000         0.0000000000
   1    6   3    8         0.0000000000         0.0000000000
   1    6   2    9        -0.0000000000         0.0000000000
   1    6   3    9        -0.0000000000        -0.0000000000
   1    6   2   10        -0.0000000000        -0.0000000000
   1    6   3   10         0.0000000000         0.0000000000
   1    6   2   11         0.0000000000         0.0000000000
   1    6   3   11         0.0000000000         0.0000000000
   1    6   2   12        -0.0000000000         0.0000000000
   1    6   3   12         0.0000000000         0.0000000000
   1    6   2   13         0.0000000000         0.0000000000
   1    6   3   13         0.0000000000         0.0000000000
   1    6   2   14        -0.0000000000         0.0000000000
   1    6   3   14        -0.0000000000        -0.0000000000
   1    6   2   15        -0.0000000000        -0.0000000000
   1    6   3   15         0.0000000000        -0.0000000000
   1    6   2   16         0.0000000000         0.0000000000
   1    6   3   16         0.0000000000         0.0000000000
   1    6   2   17        -0.0000000000         0.0000000000
   1    6   3   17        -0.0000000000        -0.0000000000
   1    6   2   18         0.0000000000        -0.0000000000
   1    6   3   18         0.0000000000        -0.0000000000
   1    6   2   19         0.0000000000         0.0000000000
   1    6   3   19        -0.0000000000        -0.0000000000
   1    6   2   20        -0.0000000000        -0.0000000000
   1    6   3   20         0.0000000000         0.0000000000
   1    6   2   21         0.0000000000        -0.0000000000
   1    6   3   21         0.0000000000        -0.0000000000
   1    6   2   22        -0.0000000000         0.0000000000
   1    6   3   22        -0.0000000000         0.0000000000
   1    6   2   23         0.0000000000        -0.0000000000
   1    6   3   23         0.0000000000        -0.0000000000
   1    6   2   24         0.0000000000        -0.0000000000
   1    6   3   24         0.0000000000        -0.0000000000
   1    6   2   25         0.0000000000         0.0000000000
   1    6   3   25         0.0000000000         0.0000000000
   1    6   2   26        -0.0000000000         0.0000000000
   1    6   3   26         0.0000000000        -0.0000000000
   1    6   2   27         0.0000000000         0.0000000000
   1    6   3   27        -0.0000000000         0.0000000000
   1    6   2   28        -0.0000000000        -0.0000000000
   1    6   3   28        -0.0000000000        -0.0000000000
   1    6   2   29        -0.0000000000         0.0000000000
   1    6   3   29         0.0000000000         0.0000000000
  
   2    6   1    1        -0.0000000000         0.0000000000
   2    6   3    1         2.8208111353        -2.8202531083
   2    6   1    2         0.0000000000        -0.0000000000
   2    6   1    3         0.0000000000         0.0000000000
   2    6   1    4         0.0000000000        -0.0000000000
   2    6   1    5        -0.0000000000         0.0000000000
   2    6   1    6        -0.0000000000         0.0000000000
   2    6   1    7         0.0000000000        -0.0000000000
   2    6   1    8         0.0000000000         0.0000000000
   2    6   1    9        -0.0000000000         0.0000000000
   2    6   1   10        -0.0000000000        -0.0000000000
   2    6   1   11         0.0000000000         0.0000000000
   2    6   1   12        -0.0000000000         0.0000000000
   2    6   1   13         0.0000000000         0.0000000000
   2    6   1   14        -0.0000000000         0.0000000000
   2    6   1   15        -0.0000000000        -0.0000000000
   2    6   1   16         0.0000000000         0.0000000000
   2    6   1   17        -0.0000000000         0.0000000000
   2    6   1   18         0.0000000000        -0.0000000000
   2    6   1   19         0.0000000000         0.0000000000
   2    6   1   20        -0.0000000000        -0.0000000000
   2    6   1   21         0.0000000000        -0.0000000000
   2    6   1   22        -0.0000000000         0.0000000000
   2    6   1   23         0.0000000000        -0.0000000000
   2    6   1   24         0.0000000000        -0.0000000000
   2    6   1   25         0.0000000000         0.0000000000
   2    6   1   26        -0.0000000000         0.0000000000
   2    6   1   27         0.0000000000         0.0000000000
   2    6   3   27         0.3702647891        -0.3705079954
   2    6   1   28        -0.0000000000        -0.0000000000
   2    6   1   29        -0.0000000000         0.0000000000
  
   3    6   1    1        -0.0000000000        -0.0000000000
   3    6   3    1         6.3276350327         6.3267671347
   3    6   1    2         0.0000000000         0.0000000000
   3    6   1    3        -0.0000000000         0.0000000000
   3    6   1    4        -0.0000000000        -0.0000000000
   3    6   1    5        -0.0000000000         0.0000000000
   3    6   1    6         0.0000000000        -0.0000000000
   3    6   1    7         0.0000000000         0.0000000000
   3    6   1    8         0.0000000000         0.0000000000
   3    6   1    9        -0.0000000000        -0.0000000000
   3    6   1   10         0.0000000000         0.0000000000
   3    6   1   11         0.0000000000         0.0000000000
   3    6   1   12         0.0000000000         0.0000000000
   3    6   1   13         0.0000000000         0.0000000000
   3    6   1   14        -0.0000000000        -0.0000000000
   3    6   1   15         0.0000000000        -0.0000000000
   3    6   1   16         0.0000000000         0.0000000000
[...]
            znucl       56.00000   22.00000    8.00000

================================================================================

- Total cpu        time (s,m,h):      15390.0      256.50      4.275
- Total wall clock time (s,m,h):      15434.4      257.24      4.287
-
- For major independent code sections, cpu and wall times (sec),
-  as well as % of the time and number of calls for node 0-
-<BEGIN_TIMER mpi_nprocs = 24, omp_nthreads = 1, mpi_rank = 0>
- cpu_time =          639.1, wall_time =          643.1
-
- routine                        cpu     %       wall     %      number of calls  Gflops 
-                                                                  (-1=no count)
- projbd                       386.494   2.5    388.994   2.5           7200      -1.00    
- fourwf%(pot)                  83.708   0.5     84.278   0.5           4320      -1.00    
- nonlop(apply)                 78.970   0.5     79.412   0.5           3600      -1.00    
- fourwf%(G->r)                 21.844   0.1     22.017   0.1           2160      -1.00    
- vtowfk3(contrib)              11.243   0.1     11.286   0.1             -1      -1.00    
- cgwf3-O(npw)                   8.659   0.1      8.523   0.1             -1      -1.00    
- nonlop(forces)                 8.498   0.1      8.591   0.1           4200      -1.00    
- vtorho3:MPI                    5.310   0.0      5.339   0.0             18      -1.00    
- fourdp                         4.376   0.0      4.420   0.0            183      -1.00    
- pspini                         3.059   0.0      3.062   0.0              1      -1.00    
- dyxc13                         2.550   0.0      2.558   0.0              1      -1.00    
- nonlop(forstr)                 2.488   0.0      2.490   0.0            120      -1.00    
- xc:pot/=fourdp                 1.986   0.0      2.010   0.0            212      -1.00    
- getghc-other                   1.629   0.0      1.580   0.0             -1      -1.00    
- newkpt(excl. rwwf   )          0.948   0.0      0.951   0.0             -1      -1.00    
- mkrho/=                        0.673   0.0      0.674   0.0              2      -1.00    
- symrhg(no FFT)                 0.621   0.0      0.625   0.0             19      -1.00    
- fourwf%(den)                   0.500   0.0      0.500   0.0            116      -1.00    
- vtorho3 (1)                    0.344   0.0      0.355   0.0             18      -1.00    
- vtorho3-kpt loop               0.317   0.0      0.345   0.0             18      -1.00    
- invars2                        0.282   0.0      0.282   0.0              1      -1.00    
- wfsinp(excl. calls)            0.146   0.0      0.147   0.0              3      -1.00    
- setsym                         0.074   0.0      0.075   0.0              2      -1.00    
- abinit(2)                      0.067   0.0      0.068   0.0              1      -1.00    
- status                         0.012   0.0      0.006   0.0            105      -1.00    
- inwffil(excl. calls)           0.009   0.0      0.014   0.0              4      -1.00    
- vtowfk3 (1)                    0.006   0.0      0.001   0.0             18      -1.00    
- kpgsph                         0.006   0.0      0.007   0.0             51      -1.00    
- initwf(before rwwf)            0.006   0.0      0.007   0.0              3      -1.00    
- mkcore                         0.005   0.0      0.005   0.0              2      -1.00    
- scfcv3  (1)                    0.003   0.0      0.003   0.0              1      -1.00    
- vtowfk3 (3)                    0.000   0.0      0.000   0.0             18      -1.00    
- vtowfk(ssdiag)                 0.000   0.0      0.000   0.0             -1      -1.00    
- initwf(after rwwf)             0.000   0.0      0.000   0.0              3      -1.00    
- others (71)                    0.000   0.0      0.000   0.0             -1      -1.00    
-<END_TIMER>
-
- subtotal                     624.830   4.1    628.625   4.1

- For major independent code sections, cpu and wall times (sec),
- as well as % of the total time and number of calls 

-<BEGIN_TIMER mpi_nprocs = 24, omp_nthreads = 1, mpi_rank = world>
- cpu_time =       15390.0, wall_time =       15434.4
-
- routine                         cpu     %       wall     %      number of calls Gflops 
-                                                                  (-1=no count)
- projbd                      7059.160  45.9   7085.801  45.9         172785      -1.00    
- vtorho3:MPI                 3679.292  23.9   3681.485  23.9            432      -1.00    
- fourwf%(pot)                1465.397   9.5   1471.581   9.5         103671      -1.00    
- nonlop(apply)               1420.172   9.2   1426.343   9.2          86391      -1.00    
- fourwf%(G->r)                406.063   2.6    407.953   2.6          50112      -1.00    
- vtowfk3(contrib)             197.246   1.3    197.458   1.3            -24      -1.00    
- nonlop(forces)               170.525   1.1    170.943   1.1         100800      -1.00    
- cgwf3-O(npw)                 157.857   1.0    156.320   1.0            -24      -1.00    
- fourdp                        80.324   0.5     80.690   0.5           4392      -1.00    
- pspini                        67.454   0.4     67.528   0.4             24      -1.00    
- dyxc13                        54.390   0.4     54.538   0.4             24      -1.00    
- nonlop(forstr)                42.384   0.3     42.434   0.3           1920      -1.00    
- xc:pot/=fourdp                37.712   0.2     37.867   0.2           5088      -1.00    
- getghc-other                  31.018   0.2     29.343   0.2            -24      -1.00    
- newkpt(excl. rwwf   )         22.707   0.1     22.761   0.1            -24      -1.00    
- mkrho/=                       16.100   0.1     16.119   0.1             48      -1.00    
- symrhg(no FFT)                14.685   0.1     14.740   0.1            456      -1.00    
- wfsinp(excl. calls)           11.098   0.1     11.097   0.1             72      -1.00    
- vtorho3-kpt loop               8.523   0.1      8.566   0.1            432      -1.00    
- fourwf%(den)                   8.146   0.1      8.149   0.1           1856      -1.00    
- vtorho3 (1)                    7.662   0.0      7.725   0.1            432      -1.00    
- invars2                        6.585   0.0      7.400   0.0             24      -1.00    
- setsym                         1.660   0.0      1.659   0.0             48      -1.00    
- abinit(2)                      1.605   0.0      1.878   0.0             24      -1.00    
- initwf(before rwwf)            0.339   0.0      0.339   0.0             64      -1.00    
- kpgsph                         0.143   0.0      0.177   0.0           1288      -1.00    
- inwffil(excl. calls)           0.119   0.0      0.117   0.0             96      -1.00    
- status                         0.114   0.0      0.128   0.0           2451      -1.00    
- mkcore                         0.101   0.0      0.100   0.0             48      -1.00    
- vtowfk3 (1)                    0.052   0.0      0.050   0.0            432      -1.00    
- scfcv3  (1)                    0.016   0.0      0.015   0.0             24      -1.00    
- vtowfk3 (3)                    0.010   0.0      0.011   0.0            432      -1.00    
- initwf(after rwwf)             0.002   0.0      0.003   0.0             64      -1.00    
- vtowfk(ssdiag)                 0.000   0.0      0.000   0.0            -24      -1.00    
- others (71)                    0.000   0.0      0.000   0.0             -1      -1.00    
-<END_TIMER>

- subtotal                   14968.660  97.3  15011.318  97.3

 Partitioning of abinit
- abinit                     15389.964 100.0  15434.389 100.0             24
 
- indefo+macroin+invars2m        6.607   0.0      7.421   0.0             24
- abinit(5)                      7.167   0.0      7.385   0.0             24
- driver                     15372.655  99.9  15415.506  99.9             24

- subtotal                   15389.964 100.0  15434.389 100.0

 Partitioning of driver
- driver                     15372.655  99.9  15415.506  99.9             24
 
- respfn                     15372.647  99.9  15415.492  99.9             24

- subtotal                   15372.655  99.9  15415.506  99.9

 Partitioning of respfn
- respfn                     15372.647  99.9  15415.492  99.9             24
 
- respfn(pspini)                67.455   0.4     67.529   0.4             24
- respfn(inwffil)               17.765   0.1     17.779   0.1             24
- respfn(frozen)               103.875   0.7    103.961   0.7             24
- respfn(dyxc13+bef.loper)      56.359   0.4     56.509   0.4             24
- respfn(after loper3)           5.401   0.0      5.416   0.0             24
- loper3                     15106.525  98.2  15149.020  98.2             24

- subtotal                   15357.630  99.8  15400.464  99.8

 Partitioning of loper3
- loper3                     15106.525  98.2  15149.020  98.2             24
 
- loper3(inwffil)               21.960   0.1     22.008   0.1             72
- scfcv3                     15008.620  97.5  15050.990  97.5             24
- loper3(outwf)                 60.426   0.4     60.486   0.4             24
- (other)                       15.417   0.1     15.425   0.1             -1

- subtotal                   15106.525  98.2  15149.020  98.2

 Partitioning of scfcv3
- scfcv3                     15008.620  97.5  15050.990  97.5             24
 
- vtorho3                    14502.442  94.2  14543.064  94.2            432
- rhotov3                       31.022   0.2     31.158   0.2            456
- scfcv3-scprqt                 18.371   0.1     18.389   0.1            432
- newvtr3                      138.861   0.9    139.632   0.9            432
- nselt3/nstdy3/nstpaw3        316.808   2.1    317.599   2.1             24

- subtotal                   15007.570  97.5  15049.907  97.5

 Partitioning of vtorho3
- vtorho3                    14502.442  94.2  14543.064  94.2            432
 
- vtorho3 (1)                    7.662   0.0      7.725   0.1            432
- vtowfk3                    10777.572  70.0  10815.778  70.1            432
- vtorho3-kpt loop               8.523   0.1      8.566   0.1            432
- vtorho3:MPI                 3679.292  23.9   3681.485  23.9            432
- vtorho3 (4)                   29.387   0.2     29.506   0.2            432

- subtotal                   14502.435  94.2  14543.060  94.2

 Partitioning of vtowfk3
- vtowfk3                    10777.572  70.0  10815.778  70.1            432
 
- cgwf3                      10158.733  66.0  10194.669  66.1          17280
- fourwf%accrho3%vtowfk3       406.063   2.6    407.953   2.6          50112
- corrmetalwf1%vtowfk3          15.468   0.1     15.636   0.1          17280
- vtowfk3(contrib)             197.246   1.3    197.458   1.3            -24

- subtotal                   10777.572  70.0  10815.778  70.1

 Partitioning of cgwf3
- cgwf3                      10158.733  66.0  10194.669  66.1          17280
 
- cgwf3-O(npw)                 157.857   1.0    156.320   1.0            -24
- getghc%cgwf3                2671.206  17.4   2680.733  17.4          86391
- projbd%cgwf3                7059.160  45.9   7085.801  45.9         172785
- nonlop%cgwf3 !2               25.128   0.2     25.282   0.2          17280
- fourwf%cgwf3                 245.382   1.6    246.534   1.6          17280

- subtotal                   10158.733  66.0  10194.669  66.1

 Partitioning of getghc
- getghc                      2671.206  17.4   2680.733  17.4          86391
 
- fourwf%getghc               1220.015   7.9   1225.047   7.9          86391
- nonlop%getghc               1420.172   9.2   1426.343   9.2          86391
- getghc-other                  31.018   0.2     29.343   0.2            -24

- subtotal                    2671.206  17.4   2680.733  17.4

 Partitioning of fourwf (upwards partitioning)
- fourwf                      1879.606  12.2   1887.683  12.2         155639
 
- fourwf%getghc               1220.015   7.9   1225.047   7.9          86391
- fourwf%cgwf3                 245.382   1.6    246.534   1.6          17280
- fourwf%accrho3%vtowfk3       406.063   2.6    407.953   2.6          50112
- fourwf%mkrho2                  8.146   0.1      8.149   0.1           1856

- subtotal                    1879.606  12.2   1887.683  12.2

 Partitioning of mkrho (upwards partitioning)
- mkrho                         17.666   0.1     17.689   0.1             24
 
- mkrho%respfn                  17.666   0.1     17.689   0.1             24

- subtotal                      17.666   0.1     17.689   0.1

 Partitioning of inwffil
- inwffil                       39.720   0.3     39.780   0.3             96
 
- inwffil(call wfsinp)          16.814   0.1     16.827   0.1             72
- inwffil(call newkpt)          22.787   0.1     22.836   0.1             96

- subtotal                      39.717   0.3     39.780   0.3

 Partitioning of wfsinp
- wfsinp                        16.814   0.1     16.826   0.1             72
 
- wfsinp(call  initwf)           5.715   0.0      5.729   0.0             64
- wfsinp:synchro                11.094   0.1     11.094   0.1             72

- subtotal                      16.814   0.1     16.826   0.1

 Partitioning of initwf
- initwf                         5.715   0.0      5.729   0.0             64
 
- rwwf%initwf(RF)                5.374   0.0      5.386   0.0             64

- subtotal                       5.715   0.0      5.728   0.0

 Partitioning of newkpt
- newkpt                        22.783   0.1     22.833   0.1             96
 
- newkpt(call wfconv)            8.847   0.1      8.877   0.1             88
- newkpt(after loop   )         13.838   0.1     13.858   0.1             96

- subtotal                      22.707   0.1     22.761   0.1

 Partitioning of  fourdp (upwards partitioning)
- fourdp                        80.324   0.5     80.690   0.5           4392
 
- fourdp%(other)                80.324   0.5     80.690   0.5           4392

- subtotal                      80.324   0.5     80.690   0.5
-
-Synchronisation (=leave_test) and MPI calls 
- communic.MPI                3779.408  24.6   3781.459  24.5          71647
-
- wfsinp:synchro                11.094   0.1     11.094   0.1             72
- mkrho :MPIrhor                 7.619   0.0      7.628   0.0             24
-
- subtotal                      18.713   0.1     18.722   0.1

 Additional information
- timana(1)                      0.002   0.0      0.001   0.0             24
- total timab                    0.000   0.0      0.000   0.0         733896
- fourwf                      1879.606  12.2   1887.683  12.2         155639
- status                         0.114   0.0      0.128   0.0           2451
- nonlop(forstr)                42.384   0.3     42.434   0.3           1920
- nonlop(total)               1633.081  10.6   1639.721  10.6         189111
- fourwf%(G->r)                406.063   2.6    407.953   2.6          50112


 Detailed analysis of some time consuming routines 
                                  tcpu    ncalls  tcpu/ncalls    ndata tcpu/ncalls/ndata
                                 (sec)                (msec)              (microsec)
- fourwf%(pot)                1465.397    103671      14.135    345600       0.041
- fourwf%(den)                   8.146      1856       4.389    172800       0.025
- fourdp                        80.324      4392      18.289    172800       0.106
- nonlop(apply)               1420.172     86391      16.439    243339       0.068
- nonlop(forces)               170.525    100800       1.692    243339       0.007
- nonlop(forstr)                42.384      1920      22.075    243339       0.091
- projbd                      7059.160    172785      40.855   1006920       0.041
- xc:pot/=fourdp                37.712      5088       7.412    172800       0.043

================================================================================

 Suggested references for the acknowledgment of ABINIT usage.

 The users of ABINIT have little formal obligations with respect to the ABINIT group
 (those specified in the GNU General Public License, http://www.gnu.org/copyleft/gpl.txt).
 However, it is common practice in the scientific literature,
 to acknowledge the efforts of people that have made the research possible.
 In this spirit, please find below suggested citations of work written by ABINIT developers,
 corresponding to implementations inside of ABINIT that you have used in the present run.
 Note also that it will be of great value to readers of publications presenting these results,
 to read papers enabling them to understand the theoretical formalism and details
 of the ABINIT implementation.
 For information on why they are suggested, see also http://www.abinit.org/about/?text=acknowledgments.

 [1] First-principles responses of solids to atomic displacements and homogeneous electric fields:,
 implementation of a conjugate-gradient algorithm. X. Gonze, Phys. Rev. B55, 10337 (1997).
 Comment : Non-vanishing rfphon and/or rfelfd, in the norm-conserving case.

 [2] Dynamical matrices, Born effective charges, dielectric permittivity tensors, and ,
 interatomic force constants from density-functional perturbation theory,
 X. Gonze and C. Lee, Phys. Rev. B55, 10355 (1997).
 Comment : Non-vanishing rfphon and/or rfelfd, in the norm-conserving case.

 [3] ABINIT : First-principles approach of materials and nanosystem properties.
 X. Gonze, B. Amadon, P.-M. Anglade, J.-M. Beuken, F. Bottin, P. Boulanger, F. Bruneval,
 D. Caliste, R. Caracas, M. Cote, T. Deutsch, L. Genovese, Ph. Ghosez, M. Giantomassi
 S. Goedecker, D.R. Hamann, P. Hermet, F. Jollet, G. Jomard, S. Leroux, M. Mancini, S. Mazevet,
 M.J.T. Oliveira, G. Onida, Y. Pouillon, T. Rangel, G.-M. Rignanese, D. Sangalli, R. Shaltaf,
 M. Torrent, M.J. Verstraete, G. Zerah, J.W. Zwanziger
 Computer Phys. Comm. 180, 2582-2615 (2009).
 Comment : the third generic paper describing the ABINIT project.
 Note that a version of this paper, that is not formatted for Computer Phys. Comm. 
 is available at http://www.abinit.org/about/ABINIT_CPC_v10.pdf .
 The licence allows the authors to put it on the Web.

 [4] A brief introduction to the ABINIT software package.
 X. Gonze, G.-M. Rignanese, M. Verstraete, J.-M. Beuken, Y. Pouillon, R. Caracas, F. Jollet,
 M. Torrent, G. Zerah, M. Mikami, Ph. Ghosez, M. Veithen, J.-Y. Raty, V. Olevano, F. Bruneval,
 L. Reining, R. Godby, G. Onida, D.R. Hamann, and D.C. Allan.
 Z. Kristallogr. 220, 558-562 (2005).
 Comment : the second generic paper describing the ABINIT project. Note that this paper
 should be cited especially if you are using the GW part of ABINIT, as several authors
 of this part are not in the list of authors of the first or third paper.
 The .pdf of the latter paper is available at http://www.abinit.org/about/zfk_0505-06_558-562.pdf.
 Note that it should not redistributed (Copyright by Oldenburg Wissenshaftverlag,
 the licence allows the authors to put it on the Web).


 And optionally :

 [5] First-principles computation of material properties : the ABINIT software project. 
 X. Gonze, J.-M. Beuken, R. Caracas, F. Detraux, M. Fuchs, G.-M. Rignanese, L. Sindic,
 M. Verstraete, G. Zerah, F. Jollet, M. Torrent, A. Roy, M. Mikami, Ph. Ghosez, J.-Y. Raty, D.C. Allan.
 Computational Materials Science 25, 478-492 (2002). http://dx.doi.org/10.1016/S0927-0256(02)00325-7
 Comment : the original paper describing the ABINIT project.
-
- Proc.   0 individual time (sec): cpu=        639.1  wall=        643.1

================================================================================

 Calculation completed.
.Delivered    2 WARNINGs and   0 COMMENTs to log file.
+Overall time at end (sec) : cpu=      15390.4  wall=      15434.9
