
.Version 6.10.2 of ABINIT 
.(MPI version, prepared for a x86_64_linux_gnu4.4 computer) 

.Copyright (C) 1998-2014 ABINIT group . 
 ABINIT comes with ABSOLUTELY NO WARRANTY.
 It is free software, and you are welcome to redistribute it
 under certain conditions (GNU General Public License,
 see ~abinit/COPYING or http://www.gnu.org/copyleft/gpl.txt).

 ABINIT is a project of the Universite Catholique de Louvain,
 Corning Inc. and other collaborators, see ~abinit/doc/developers/contributors.txt .
 Please read ~abinit/doc/users/acknowledgments.html for suggested
 acknowledgments of the ABINIT effort.
 For more information, see http://www.abinit.org .

.Starting date : Thu 10 Nov 2011.
- ( at  4h 4 )
  
- input  file    -> ../tmbt_3.in
- output file    -> tmbt_3.outC
- root for input  files -> tmbt_3i
- root for output files -> tmbt_3o


 Symmetries : space group P3_2 2 1 (#154); Bravais hP (primitive hexag.)
================================================================================
 Values of the parameters that define the memory need of the present run
   intxc =         0  ionmov =         0    iscf =         7 xclevel =         1
  lmnmax =         2   lnmax =         2   mband =        50  mffmem =         1
P  mgfft =        48   mkmem =         3 mpssoang=         3     mpw =      4304
  mqgrid =      3001   natom =         9    nfft =     97200    nkpt =         9
  nloalg =         4  nspden =         1 nspinor =         1  nsppol =         1
    nsym =         6  n1xccc =      2501  ntypat =         2  occopt =         1
================================================================================
P This job should need less than                      39.239 Mbytes of memory.
  Rough estimation (10% accuracy) of disk space for files :
  WF disk file :     29.555 Mbytes ; DEN or POT disk file :      0.744 Mbytes.
================================================================================

--------------------------------------------------------------------------------
------------- Echo of variables that govern the present computation ------------
--------------------------------------------------------------------------------
-
- outvars: echo of selected default values                                      
-   accesswff0 =  0 , fftalg0 =112 , wfoptalg0 =  0
-
- outvars: echo of global parameters not present in the input file              
-   nproc =    4
-
 -outvars: echo values of preprocessed input variables --------
            acell      9.2843000799E+00  9.2843000799E+00  1.0213270550E+01 Bohr
              amu      2.80855000E+01  1.59994000E+01
             ecut      2.39922335E+01 Hartree
          ecuteps      7.91303771E+00 Hartree
          ecutwfn      2.39922335E+01 Hartree
        freqremax      1.46997302E+00 Hartree
        gwcalctyp           2
           gwpara           2
          inclvkb           2
           irdkss           1
           istwfk        1    0    1    0    0    0    0    0    0
              kpt      0.00000000E+00  0.00000000E+00  0.00000000E+00
                       2.50000000E-01  0.00000000E+00  0.00000000E+00
                       5.00000000E-01  0.00000000E+00  0.00000000E+00
                       2.50000000E-01  2.50000000E-01  0.00000000E+00
                       0.00000000E+00  0.00000000E+00  3.33333333E-01
                       2.50000000E-01  0.00000000E+00  3.33333333E-01
                       5.00000000E-01  0.00000000E+00  3.33333333E-01
                      -2.50000000E-01  0.00000000E+00  3.33333333E-01
                       2.50000000E-01  2.50000000E-01  3.33333333E-01
          kptrlen      3.06398116E+01
         kptrlatt      4  0  0   0  4  0   0  0  3
P           mkmem           3
            natom           9
            nband          50
          nfreqim           5
          nfreqre          20
            ngfft          45      45      48
             nkpt           9
           npweps         811
           npwwfn        4301
           nsheps         142
            nstep         200
             nsym           6
           ntypat           2
              occ      2.000000  2.000000  2.000000  2.000000  2.000000  2.000000
                       2.000000  2.000000  2.000000  2.000000  2.000000  2.000000
                       2.000000  2.000000  2.000000  2.000000  2.000000  2.000000
                       2.000000  2.000000  2.000000  2.000000  2.000000  2.000000
                       0.000000  0.000000  0.000000  0.000000  0.000000  0.000000
                       0.000000  0.000000  0.000000  0.000000  0.000000  0.000000
                       0.000000  0.000000  0.000000  0.000000  0.000000  0.000000
                       0.000000  0.000000  0.000000  0.000000  0.000000  0.000000
                       0.000000  0.000000
        optdriver           3
            rprim      5.0000000000E-01 -8.6602540378E-01  0.0000000000E+00
                       5.0000000000E-01  8.6602540378E-01  0.0000000000E+00
                       0.0000000000E+00  0.0000000000E+00  1.0000000000E+00
          spgroup         154
           spmeth           1
           symrel      1  0  0   0  1  0   0  0  1       1  0  0  -1 -1  0   0  0 -1
                       0  1  0  -1 -1  0   0  0  1       0  1  0   1  0  0   0  0 -1
                      -1 -1  0   1  0  0   0  0  1      -1 -1  0   0  1  0   0  0 -1
           symchi        1
            tnons      0.0000000  0.0000000  0.0000000     0.0000000  0.0000000  0.0000000
                       0.0000000  0.0000000 -0.3333333     0.0000000  0.0000000 -0.3333333
                       0.0000000  0.0000000  0.3333333     0.0000000  0.0000000  0.3333333
            typat      1  1  1  2  2  2  2  2  2
              wtk        0.02083    0.12500    0.06250    0.12500    0.04167    0.12500
                         0.12500    0.12500    0.25000
           xangst      1.1422818000E+00 -1.9784901142E+00  0.0000000000E+00
                       1.1422818000E+00  1.9784901142E+00  3.6030866667E+00
                      -2.2845636000E+00  0.0000000000E+00  1.8015433333E+00
                       1.6876292400E+00 -6.0843889532E-01  6.4855560000E-01
                      -1.3707381600E+00 -1.1573103463E+00  2.4500989333E+00
                      -3.1689108000E-01  1.7657492417E+00  4.2516422667E+00
                      -3.1689108000E-01 -1.7657492417E+00 -6.4855560000E-01
                       1.6876292400E+00  6.0843889532E-01  2.9545310667E+00
                      -1.3707381600E+00  1.1573103463E+00  1.1529877333E+00
            xcart      2.1585997686E+00 -3.7388044724E+00  0.0000000000E+00
                       2.1585997686E+00  3.7388044724E+00  6.8088470331E+00
                      -4.3171995372E+00  0.0000000000E+00  3.4044235165E+00
                       3.1891570774E+00 -1.1497828807E+00  1.2255924659E+00
                      -2.5903197223E+00 -2.1869996053E+00  4.6300159825E+00
                      -5.9883735515E-01  3.3367824861E+00  8.0344394990E+00
                      -5.9883735515E-01 -3.3367824861E+00 -1.2255924659E+00
                       3.1891570774E+00  1.1497828807E+00  5.5832545671E+00
                      -2.5903197223E+00  2.1869996053E+00  2.1788310506E+00
             xred      4.6500000000E-01  0.0000000000E+00  0.0000000000E+00
                       0.0000000000E+00  4.6500000000E-01  6.6666666667E-01
                      -4.6500000000E-01 -4.6500000000E-01  3.3333333333E-01
                       4.1500000000E-01  2.7200000000E-01  1.2000000000E-01
                      -1.4300000000E-01 -4.1500000000E-01  4.5333333333E-01
                      -2.7200000000E-01  1.4300000000E-01  7.8666666667E-01
                       1.4300000000E-01 -2.7200000000E-01 -1.2000000000E-01
                       2.7200000000E-01  4.1500000000E-01  5.4666666667E-01
                      -4.1500000000E-01 -1.4300000000E-01  2.1333333333E-01
            znucl       14.00000    8.00000

================================================================================

 chkinp: Checking input parameters for consistency.

================================================================================
== DATASET  1 ==================================================================

 Exchange-correlation functional for the present dataset will be:
  LDA: new Teter (4/93) with spin-polarized option - ixc=1
 Citation for XC functional:
  S. Goedecker, M. Teter, J. Huetter, PRB 54, 1703 (1996)

 SCREENING: Calculation of the susceptibility and dielectric matrices

 Based on a program developped by R.W. Godby, V. Olevano, G. Onida, and L. Reining.
 Incorporated in ABINIT by V. Olevano, G.-M. Rignanese, and M. Torrent.
.Using double precision arithmetic ; gwpc =  8

 Real(R)+Recip(G) space primitive vectors, cartesian coordinates (Bohr,Bohr^-1):
 R(1)=  4.6421500 -8.0404397  0.0000000  G(1)=  0.1077087 -0.0621857  0.0000000
 R(2)=  4.6421500  8.0404397  0.0000000  G(2)=  0.1077087  0.0621857  0.0000000
 R(3)=  0.0000000  0.0000000 10.2132705  G(3)=  0.0000000  0.0000000  0.0979118
 Unit cell volume ucvol=  7.6241917E+02 bohr^3
 Angles (23,13,12)=  9.00000000E+01  9.00000000E+01  1.20000000E+02 degrees

--- Pseudopotential description ------------------------------------------------
- pspini: atom type   1  psp file is ../../../Psps_for_tests/14si.pspnc
- pspatm: opening atomic psp file    ../../../Psps_for_tests/14si.pspnc
-  Troullier-Martins psp for element  Si        Thu Oct 27 17:31:21 EDT 1994
- 14.00000   4.00000    940714                znucl, zion, pspdat
    1    1    2    2      2001   0.00000      pspcod,pspxc,lmax,lloc,mmax,r2well
    0   5.907  14.692    1   2.0872718        l,e99.0,e99.9,nproj,rcpsp
   0.00000000   0.00000000   0.00000000   0.00000000     rms, ekb1, ekb2, epsatm
    1   2.617   4.181    1   2.0872718        l,e99.0,e99.9,nproj,rcpsp
   0.00000000   0.00000000   0.00000000   0.00000000     rms, ekb1, ekb2, epsatm
    2   0.000   0.000    0   2.0872718        l,e99.0,e99.9,nproj,rcpsp
   0.00000000   0.00000000   0.00000000   0.00000000     rms, ekb1, ekb2, epsatm
    1.80626423934776    0.22824404341771    1.17378968127746   rchrg,fchrg,qchrg
 pspatm: epsatm=    1.43386982
         --- l  ekb(1:nproj) -->
             0    3.287949
             1    1.849886
 pspatm: atomic psp has been read  and splines computed

- pspini: atom type   2  psp file is ../../../Psps_for_tests/8o.pspnc
- pspatm: opening atomic psp file    ../../../Psps_for_tests/8o.pspnc
-  Troullier-Martins psp for element  O         Thu Oct 27 17:29:57 EDT 1994
-  8.00000   6.00000    940714                znucl, zion, pspdat
    1    1    1    1      2001   0.00000      pspcod,pspxc,lmax,lloc,mmax,r2well
    0   5.480  16.893    1   1.4482335        l,e99.0,e99.9,nproj,rcpsp
   0.00000000   0.00000000   0.00000000   0.00000000     rms, ekb1, ekb2, epsatm
    1  20.911  28.075    0   1.4482335        l,e99.0,e99.9,nproj,rcpsp
   0.00000000   0.00000000   0.00000000   0.00000000     rms, ekb1, ekb2, epsatm
    0.56990156784787    3.95561236318184    0.63894027514378   rchrg,fchrg,qchrg
 pspatm: epsatm=    1.57752239
         --- l  ekb(1:nproj) -->
             0    5.670783
 pspatm: atomic psp has been read  and splines computed

   6.60803703E+02                                ecore*ucvol(ha*bohr**3)
--------------------------------------------------------------------------------

 ==== K-mesh for the wavefunctions ====
 Number of points in the irreducible wedge :     9
 Reduced coordinates and weights :

     1)     0.00000000E+00  0.00000000E+00  0.00000000E+00       0.02083
     2)     2.50000000E-01  0.00000000E+00  0.00000000E+00       0.12500
     3)     5.00000000E-01  0.00000000E+00  0.00000000E+00       0.06250
     4)     2.50000000E-01  2.50000000E-01  0.00000000E+00       0.12500
     5)     0.00000000E+00  0.00000000E+00  3.33333333E-01       0.04167
     6)     2.50000000E-01  0.00000000E+00  3.33333333E-01       0.12500
     7)     5.00000000E-01  0.00000000E+00  3.33333333E-01       0.12500
     8)    -2.50000000E-01  0.00000000E+00  3.33333333E-01       0.12500
     9)     2.50000000E-01  2.50000000E-01  3.33333333E-01       0.25000

 Together with  6 symmetry operations and time-reversal symmetry 
 yields    48 points in the full Brillouin Zone.


 ==== Q-mesh for the screening function ====
 Number of points in the irreducible wedge :     9
 Reduced coordinates and weights :

     1)     0.00000000E+00  0.00000000E+00  0.00000000E+00       0.02083
     2)     2.50000000E-01  0.00000000E+00  0.00000000E+00       0.12500
     3)     5.00000000E-01  0.00000000E+00  0.00000000E+00       0.06250
     4)     2.50000000E-01  2.50000000E-01  0.00000000E+00       0.12500
     5)     0.00000000E+00  0.00000000E+00  3.33333333E-01       0.04167
     6)     2.50000000E-01  0.00000000E+00  3.33333333E-01       0.12500
     7)     5.00000000E-01  0.00000000E+00  3.33333333E-01       0.12500
     8)    -2.50000000E-01  0.00000000E+00  3.33333333E-01       0.12500
     9)     2.50000000E-01  2.50000000E-01  3.33333333E-01       0.25000

 Together with  6 symmetry operations and time-reversal symmetry 
 yields    48 points in the full Brillouin Zone.


 setmesh: FFT mesh size selected  =  27x 27x 36
          total number of points  =    26244


 screening : taking advantage of time-reversal symmetry 
 Maximum band index for partially occupied states nbvw =    24
 Remaining bands to be divided among processors   nbcw =    26
 Number of bands treated by each node ~    6

 k       eigenvalues [eV]
  1        -17.51 -15.93 -15.93 -15.25 -15.21 -15.21  -6.52  -6.52  -3.73  -3.66
            -3.50  -3.50  -1.21  -1.21  -0.91  -0.74   0.24   0.24   0.34   0.78
             0.78   1.09   1.52   1.52   7.50  10.82  10.82  11.24  11.24  12.15
            13.35  13.66  14.17  14.17  14.88  14.88  15.72  16.41  16.41  16.47
            16.62  16.62  17.99  17.99  19.37  20.22  20.22  21.54  21.54  22.17

  2        -17.33 -16.14 -15.90 -15.30 -15.25 -15.22  -6.59  -6.13  -3.79  -3.75
            -3.63  -3.21  -1.41  -1.09  -0.87  -0.45  -0.29   0.19   0.27   0.69
             0.80   0.94   1.58   1.67   8.40  10.82  10.87  11.33  11.59  12.33
            12.67  13.46  13.84  14.03  14.49  14.95  15.39  15.95  16.44  16.52
            16.78  16.85  18.16  18.61  19.41  19.93  20.22  20.56  21.32  22.04

  3        -17.01 -16.51 -15.87 -15.32 -15.28 -15.24  -6.66  -5.64  -4.15  -3.71
            -3.70  -2.90  -1.36  -1.17  -0.97  -0.55  -0.32  -0.00   0.15   0.66
             0.72   1.02   1.52   1.78   9.81  10.51  11.22  11.24  12.06  12.09
            12.78  12.82  13.41  13.99  14.16  14.49  14.70  15.93  16.15  16.71
            16.75  17.27  17.96  18.47  19.73  20.65  20.67  21.12  21.14  22.03

  4        -17.02 -16.48 -15.90 -15.32 -15.27 -15.24  -6.68  -5.50  -4.42  -3.68
            -3.55  -2.89  -1.33  -1.15  -1.00  -0.42  -0.36   0.01   0.28   0.41
             0.70   1.16   1.51   1.78   9.66  10.94  10.96  11.63  11.75  12.19
            12.29  12.92  13.70  13.76  14.20  14.58  14.70  15.92  16.04  16.73
            17.01  17.20  18.44  19.02  19.03  20.23  20.30  20.84  21.66  21.71

  5        -17.29 -16.69 -15.35 -15.25 -15.23 -15.18  -7.48  -5.14  -4.10  -3.83
            -3.78  -3.03  -1.22  -0.92  -0.83  -0.41  -0.10   0.03   0.18   0.24
             0.66   1.37   1.65   1.75   8.51  10.26  10.70  10.87  11.81  11.91
            12.62  13.33  13.57  14.39  14.87  15.37  15.46  15.53  16.35  16.93
            16.94  17.21  17.51  18.97  19.02  19.29  21.06  22.15  22.34  22.40

  6        -17.14 -16.63 -15.59 -15.29 -15.27 -15.21  -7.08  -5.28  -4.38  -3.70
            -3.49  -3.16  -1.43  -1.05  -0.82  -0.51  -0.21   0.15   0.27   0.49
             0.80   1.14   1.54   1.64   9.19  10.52  10.79  11.06  11.92  12.00
            12.63  12.87  13.67  13.94  14.11  14.63  15.34  15.71  16.65  16.97
            17.16  17.32  18.25  18.72  18.95  19.63  20.06  21.00  21.81  21.96

  7        -16.95 -16.48 -15.98 -15.33 -15.27 -15.23  -6.55  -5.54  -4.56  -3.65
            -3.31  -3.18  -1.45  -1.41  -0.73  -0.51  -0.20   0.11   0.42   0.64
             0.78   1.13   1.21   1.66  10.25  10.67  11.09  11.52  11.98  12.06
            12.16  12.63  13.12  13.58  13.72  14.36  14.89  15.68  16.72  16.88
            17.20  17.60  18.34  18.46  18.91  20.03  20.47  20.82  21.42  21.80

  8        -17.14 -16.62 -15.62 -15.29 -15.24 -15.22  -7.08  -5.29  -4.38  -3.72
            -3.50  -3.11  -1.42  -1.03  -0.81  -0.59  -0.28   0.23   0.36   0.45
             0.83   1.08   1.44   1.75   9.14  10.72  10.86  11.15  11.63  11.89
            12.53  12.86  13.73  13.99  14.27  14.68  15.36  15.77  16.62  16.92
            17.01  17.36  17.71  18.78  19.06  19.97  20.30  21.00  21.65  21.91

  9        -16.95 -16.50 -15.95 -15.33 -15.29 -15.24  -6.54  -5.48  -4.68  -3.61
            -3.32  -3.18  -1.49  -1.24  -0.88  -0.45  -0.17   0.02   0.47   0.65
             0.87   1.03   1.34   1.55  10.10  10.89  11.12  11.58  11.72  12.05
            12.26  12.81  13.16  13.40  13.82  14.11  14.80  15.72  16.37  17.17
            17.52  17.97  18.28  18.83  19.23  19.48  19.85  20.70  21.54  22.08


 test on the normalization of the wavefunctions
 min sum_G |a(n,k,G)| =  0.999874
 max sum_G |a(n,k,G)| =  1.000000
 test on the orthogonalization of the wavefunctions (NB: this is not invariant for degenerate states)
- min sum_G a(n,k,G)a(n",k,G) =  0.000000
- max sum_G a(n,k,G)a(n",k,G) =  0.000042

 rdkss : COMMENT -
  Note that the test on the orthogonalization is not complete
  since bands are spread among different processors

 Number of electrons calculated from density =   47.9979; Expected =   48.0000
 average of density, n =  0.062955
 r_s =    1.5594
 omega_plasma =   24.2030 [eV]


 calculating chi0 at frequencies [eV] :
  1    0.000000E+00    0.000000E+00
  2    2.105263E+00    0.000000E+00
  3    4.210526E+00    0.000000E+00
  4    6.315789E+00    0.000000E+00
  5    8.421053E+00    0.000000E+00
  6    1.052632E+01    0.000000E+00
  7    1.263158E+01    0.000000E+00
  8    1.473684E+01    0.000000E+00
  9    1.684211E+01    0.000000E+00
 10    1.894737E+01    0.000000E+00
 11    2.105263E+01    0.000000E+00
 12    2.315789E+01    0.000000E+00
 13    2.526316E+01    0.000000E+00
 14    2.736842E+01    0.000000E+00
 15    2.947368E+01    0.000000E+00
 16    3.157895E+01    0.000000E+00
 17    3.368421E+01    0.000000E+00
 18    3.578947E+01    0.000000E+00
 19    3.789474E+01    0.000000E+00
 20    4.000000E+01    0.000000E+00
 21    0.000000E+00    4.738962E+00
 22    0.000000E+00    1.226160E+01
 23    0.000000E+00    2.420303E+01
 24    0.000000E+00    4.315888E+01
 25    0.000000E+00    7.324942E+01


--------------------------------------------------------------------------------
  q-point number  1        q = ( 0.000000, 0.000000, 0.000000) [r.l.u.]
--------------------------------------------------------------------------------
  chi0(G,G') at the    1 th omega   0.0000   0.0000 [eV]
       1       2       3       4       5       6       7       8       9
    1  -0.000  -0.000   0.000   0.000   0.000  -0.000   0.000  -0.000  -0.000
       -0.000  -0.000  -0.000   0.000  -0.000   0.000   0.000  -0.000   0.000

    2  -0.000 -18.343   0.000   1.953   0.892  -3.905  -1.785   1.953   0.892
        0.000  -0.000  -0.000  -3.382   1.545  -0.000  -0.000   3.382  -1.545

  chi0(G,G') at the    2 th omega   2.1053   0.0000 [eV]
       1       2       3       4       5       6       7       8       9
    1  -0.000  -0.000   0.000   0.000   0.000  -0.000   0.000  -0.000  -0.000
       -0.000  -0.000  -0.000   0.000  -0.000  -0.000   0.000  -0.000   0.000

    2  -0.000 -18.776   0.000   2.030   0.903  -4.006  -1.832   1.976   0.929
        0.000  -0.138  -0.000  -3.454   1.594  -0.031  -0.015   3.485  -1.579

  chi0(G,G') at the    3 th omega   4.2105   0.0000 [eV]
       1       2       3       4       5       6       7       8       9
    1  -0.000  -0.000   0.000   0.000   0.000  -0.000   0.000  -0.000  -0.000
       -0.000  -0.000  -0.000   0.000  -0.000  -0.000   0.000  -0.000   0.000

    2  -0.000 -20.259   0.000   2.212   0.981  -4.353  -1.994   2.141   1.014
        0.000  -0.179  -0.000  -3.749   1.737  -0.041  -0.019   3.790  -1.718

  chi0(G,G') at the    4 th omega   6.3158   0.0000 [eV]
       1       2       3       4       5       6       7       8       9
    1  -0.000  -0.000   0.000   0.000   0.000  -0.000   0.000  -0.000  -0.000
       -0.000  -0.000  -0.000   0.000  -0.000  -0.000   0.000  -0.000   0.000

    2  -0.000 -23.696   0.000   2.670   1.167  -5.167  -2.350   2.497   1.182
        0.000  -0.340  -0.000  -4.425   2.039  -0.100  -0.009   4.525  -2.031

  chi0(G,G') at the    5 th omega   8.4211   0.0000 [eV]
       1       2       3       4       5       6       7       8       9
    1  -0.000  -0.000   0.000   0.000   0.000  -0.000   0.000  -0.000  -0.000
       -0.000  -0.000  -0.000   0.000  -0.000  -0.000   0.000  -0.000  -0.000

    2  -0.000 -33.261   0.000   3.977   1.161  -7.099  -3.247   3.122   2.086
        0.000  -3.254  -0.000  -5.901   3.079  -0.494  -0.534   6.395  -2.545

  chi0(G,G') at the    6 th omega  10.5263   0.0000 [eV]
       1       2       3       4       5       6       7       8       9
    1  -0.000  -0.000   0.000   0.000   0.000  -0.000   0.000  -0.000  -0.000
       -0.000  -0.000   0.000   0.000   0.000  -0.000   0.000   0.000  -0.000

    2  -0.000 -38.938   0.000   9.375  -0.723 -10.205  -4.523   0.830   5.245
       -0.000 -27.601   0.000  -6.371   5.640  -4.934  -3.446  11.304  -2.194

  chi0(G,G') at the    7 th omega  12.6316   0.0000 [eV]
       1       2       3       4       5       6       7       8       9
    1  -0.000   0.000   0.000   0.000  -0.000  -0.000   0.000  -0.000   0.000
       -0.000  -0.000   0.000  -0.000   0.000  -0.000   0.000   0.000  -0.000

    2  -0.000 -15.407   0.000   9.800  -6.462  -1.700   0.956  -8.100   5.506
       -0.000 -37.737  -0.000   3.695   2.626 -10.335  -6.909   6.640   4.283

  chi0(G,G') at the    8 th omega  14.7368   0.0000 [eV]
       1       2       3       4       5       6       7       8       9
    1  -0.000   0.000  -0.000   0.000   0.000  -0.000   0.000  -0.000   0.000
       -0.000  -0.000   0.000   0.000  -0.000  -0.000   0.000  -0.000   0.000

    2   0.000 -14.615   0.000  11.665  -3.045  -0.907  -1.159 -10.758   4.204
       -0.000 -39.764   0.000   5.688   3.096 -12.946  -4.185   7.259   1.089

  chi0(G,G') at the    9 th omega  16.8421   0.0000 [eV]
       1       2       3       4       5       6       7       8       9
    1   0.000   0.000  -0.000  -0.000   0.000   0.000  -0.000   0.000  -0.000
       -0.000  -0.000   0.000   0.000   0.000  -0.000   0.000  -0.000  -0.000

    2   0.000   1.040   0.000   5.328  -7.567   5.001   2.985 -10.329   4.582
       -0.000 -37.254  -0.000   8.851   0.922  -9.040  -7.014   0.189   6.092

  chi0(G,G') at the   10 th omega  18.9474   0.0000 [eV]
       1       2       3       4       5       6       7       8       9
    1   0.000   0.000  -0.000  -0.000  -0.000   0.000  -0.000   0.000   0.000
       -0.000   0.000   0.000   0.000  -0.000  -0.000   0.000   0.000  -0.000

    2   0.000  17.986  -0.000   0.328  -1.426   5.148   4.829  -5.475  -3.403
       -0.000 -25.271   0.000   6.133  -4.753  -3.350   1.142  -2.783   3.611

  chi0(G,G') at the   11 th omega  21.0526   0.0000 [eV]
       1       2       3       4       5       6       7       8       9
    1   0.000   0.000  -0.000  -0.000  -0.000   0.000  -0.000  -0.000   0.000
       -0.000   0.000  -0.000   0.000  -0.000  -0.000   0.000   0.000  -0.000

    2   0.000  18.327   0.000  -3.182   0.402   5.783   0.532  -2.601  -0.934
        0.000 -17.406  -0.000   4.841  -0.847   0.335   0.772  -5.176   0.075

  chi0(G,G') at the   12 th omega  23.1579   0.0000 [eV]
       1       2       3       4       5       6       7       8       9
    1   0.000  -0.000   0.000  -0.000  -0.000   0.000  -0.000  -0.000   0.000
       -0.000   0.000  -0.000   0.000  -0.000  -0.000   0.000   0.000  -0.000

    2  -0.000  19.092  -0.000  -1.909  -0.530   2.390   0.637  -0.481  -0.108
        0.000 -11.767   0.000   1.658  -0.430   0.824  -0.244  -2.482   0.674

  chi0(G,G') at the   13 th omega  25.2632   0.0000 [eV]
       1       2       3       4       5       6       7       8       9
    1   0.000   0.000  -0.000  -0.000   0.000   0.000  -0.000   0.000   0.000
       -0.000  -0.000   0.000   0.000  -0.000  -0.000   0.000   0.000  -0.000

    2   0.000  12.893  -0.000  -0.759  -0.525   1.913   0.868  -1.154  -0.343
       -0.000  -5.686  -0.000   1.771  -0.699  -0.228  -0.105  -1.542   0.804

  chi0(G,G') at the   14 th omega  27.3684   0.0000 [eV]
       1       2       3       4       5       6       7       8       9
    1   0.000   0.000  -0.000  -0.000  -0.000   0.000  -0.000  -0.000   0.000
       -0.000   0.000   0.000   0.000  -0.000  -0.000   0.000   0.000  -0.000

    2   0.000  10.937   0.000  -0.806  -0.305   1.799   1.069  -0.993  -0.764
       -0.000  -4.167   0.000   1.612  -1.058  -0.108   0.265  -1.504   0.793

  chi0(G,G') at the   15 th omega  29.4737   0.0000 [eV]
       1       2       3       4       5       6       7       8       9
    1   0.000   0.000  -0.000  -0.000   0.000   0.000  -0.000  -0.000   0.000
       -0.000   0.000   0.000   0.000   0.000  -0.000   0.000   0.000  -0.000

    2   0.000   9.580  -0.000  -0.554   0.075   1.006   0.331  -0.453  -0.406
       -0.000  -1.721   0.000   0.842  -0.426   0.058   0.277  -0.901   0.148

 No. of calculated frequencies >  15, stop printing
 For q-point:  0.000010 0.000020 0.000030
  dielectric constant =   2.3232
  dielectric constant without local fields =   2.4627

  Average fulfillment of the sum rule on Im[epsilon] for q-point    1 :     21.31  [%]
  Heads and wings of the symmetrical epsilon^-1(G,G')

   Upper and lower wings at the    1 th omega   0.0000   0.0000 [eV]
       1       2       3       4       5       6       7       8       9
      0.430  -0.010   0.010   0.009   0.001  -0.021   0.021  -0.001  -0.009
     -0.000  -0.003  -0.003   0.001  -0.001   0.000   0.000  -0.001   0.001
       1       2       3       4       5       6       7       8       9
      0.430  -0.010   0.010   0.009   0.001  -0.021   0.021  -0.001  -0.009
     -0.000   0.003   0.003  -0.001   0.001  -0.000  -0.000   0.001  -0.001


   Upper and lower wings at the    2 th omega   2.1053   0.0000 [eV]
       1       2       3       4       5       6       7       8       9
      0.423  -0.010   0.010   0.009   0.001  -0.021   0.021  -0.001  -0.009
     -0.002  -0.003  -0.003   0.001  -0.001   0.000   0.000  -0.001   0.001
       1       2       3       4       5       6       7       8       9
      0.423  -0.010   0.010   0.009   0.001  -0.021   0.021  -0.001  -0.009
     -0.002   0.003   0.003  -0.001   0.001  -0.000  -0.000   0.001  -0.001


   Upper and lower wings at the    3 th omega   4.2105   0.0000 [eV]
       1       2       3       4       5       6       7       8       9
      0.398  -0.010   0.010   0.009   0.001  -0.021   0.021  -0.001  -0.009
     -0.003  -0.003  -0.003   0.001  -0.001   0.000   0.000  -0.001   0.001
       1       2       3       4       5       6       7       8       9
      0.398  -0.010   0.010   0.009   0.001  -0.021   0.021  -0.001  -0.009
     -0.003   0.003   0.003  -0.001   0.001  -0.000  -0.000   0.001  -0.001


   Upper and lower wings at the    4 th omega   6.3158   0.0000 [eV]
       1       2       3       4       5       6       7       8       9
      0.342  -0.010   0.010   0.009   0.001  -0.020   0.020  -0.001  -0.009
     -0.005  -0.003  -0.003   0.001  -0.001   0.001  -0.000  -0.001   0.001
       1       2       3       4       5       6       7       8       9
      0.342  -0.010   0.010   0.009   0.001  -0.020   0.020  -0.001  -0.009
     -0.005   0.003   0.003  -0.001   0.001   0.000  -0.001   0.001  -0.001


   Upper and lower wings at the    5 th omega   8.4211   0.0000 [eV]
       1       2       3       4       5       6       7       8       9
      0.246  -0.009   0.008   0.009   0.001  -0.020   0.020  -0.001  -0.009
     -0.053  -0.001  -0.005   0.001  -0.002   0.002  -0.001  -0.001   0.001
       1       2       3       4       5       6       7       8       9
      0.246  -0.008   0.009   0.009   0.001  -0.020   0.020  -0.001  -0.009
     -0.053   0.005   0.001  -0.001   0.001   0.001  -0.002   0.002  -0.001


   Upper and lower wings at the    6 th omega  10.5263   0.0000 [eV]
       1       2       3       4       5       6       7       8       9
      0.181  -0.007   0.005   0.009   0.002  -0.020   0.019   0.003  -0.012
     -0.205   0.001  -0.005  -0.003  -0.003   0.013  -0.012  -0.001   0.006
       1       2       3       4       5       6       7       8       9
      0.181  -0.005   0.007   0.012  -0.003  -0.019   0.020  -0.002  -0.009
     -0.205   0.005  -0.001  -0.006   0.001   0.012  -0.013   0.003   0.003


   Upper and lower wings at the    7 th omega  12.6316   0.0000 [eV]
       1       2       3       4       5       6       7       8       9
      0.250  -0.018   0.011   0.003   0.014  -0.033   0.025   0.009  -0.018
     -0.316   0.006  -0.016   0.002  -0.006   0.013  -0.011   0.002   0.001
       1       2       3       4       5       6       7       8       9
      0.250  -0.011   0.018   0.018  -0.009  -0.025   0.033  -0.014  -0.003
     -0.316   0.016  -0.006  -0.001  -0.002   0.011  -0.013   0.006  -0.002


   Upper and lower wings at the    8 th omega  14.7368   0.0000 [eV]
       1       2       3       4       5       6       7       8       9
      0.220  -0.028   0.027   0.012  -0.005  -0.018   0.022  -0.008  -0.004
     -0.329  -0.008  -0.011  -0.008   0.007   0.012  -0.021   0.018  -0.009
       1       2       3       4       5       6       7       8       9
      0.220  -0.027   0.028   0.004   0.008  -0.022   0.018   0.005  -0.012
     -0.329   0.011   0.008   0.009  -0.018   0.021  -0.012  -0.007   0.008


   Upper and lower wings at the    9 th omega  16.8421   0.0000 [eV]
       1       2       3       4       5       6       7       8       9
      0.125  -0.027   0.027   0.017  -0.005  -0.035   0.043  -0.018  -0.002
     -0.459  -0.010  -0.009  -0.005  -0.008   0.019  -0.012  -0.013   0.019
       1       2       3       4       5       6       7       8       9
      0.125  -0.027   0.027   0.002   0.018  -0.043   0.035   0.005  -0.017
     -0.459   0.009   0.010  -0.019   0.013   0.012  -0.019   0.008   0.005


   Upper and lower wings at the   10 th omega  18.9474   0.0000 [eV]
       1       2       3       4       5       6       7       8       9
      0.066  -0.054   0.049  -0.013   0.038  -0.054   0.036   0.014  -0.022
     -0.668  -0.010  -0.025  -0.036   0.013   0.030  -0.029  -0.017   0.039
       1       2       3       4       5       6       7       8       9
      0.066  -0.049   0.054   0.022  -0.014  -0.036   0.054  -0.038   0.013
     -0.668   0.025   0.010  -0.039   0.017   0.029  -0.030  -0.013   0.036


   Upper and lower wings at the   11 th omega  21.0526   0.0000 [eV]
       1       2       3       4       5       6       7       8       9
     -0.085   0.004   0.008   0.038   0.013  -0.078   0.058   0.046  -0.078
     -0.949  -0.017   0.016  -0.054   0.001   0.099  -0.095  -0.012   0.062
       1       2       3       4       5       6       7       8       9
     -0.085  -0.008  -0.004   0.078  -0.046  -0.058   0.078  -0.013  -0.038
     -0.949  -0.016   0.017  -0.062   0.012   0.095  -0.099  -0.001   0.054


   Upper and lower wings at the   12 th omega  23.1579   0.0000 [eV]
       1       2       3       4       5       6       7       8       9
     -0.159  -0.077   0.119   0.157  -0.007  -0.311   0.321  -0.023  -0.136
     -1.532  -0.094   0.027  -0.098   0.086  -0.009  -0.017  -0.006   0.045
       1       2       3       4       5       6       7       8       9
     -0.159  -0.119   0.077   0.136   0.023  -0.321   0.311   0.007  -0.157
     -1.532  -0.027   0.094  -0.045   0.006   0.017   0.009  -0.086   0.098


   Upper and lower wings at the   13 th omega  25.2632   0.0000 [eV]
       1       2       3       4       5       6       7       8       9
      0.909  -0.022  -0.018   0.399  -0.273  -0.048   0.082   0.170  -0.330
     -4.044   0.057  -0.059   0.222   0.015  -0.435   0.409   0.066  -0.276
       1       2       3       4       5       6       7       8       9
      0.909   0.018   0.022   0.330  -0.170  -0.082   0.048   0.273  -0.399
     -4.044   0.059  -0.057   0.276  -0.066  -0.409   0.435  -0.015  -0.222


   Upper and lower wings at the   14 th omega  27.3684   0.0000 [eV]
       1       2       3       4       5       6       7       8       9
      2.947   0.031   0.012  -0.113   0.042   0.094  -0.090  -0.054   0.122
     -0.515  -0.059   0.065   0.109  -0.057  -0.105   0.134  -0.031  -0.050
       1       2       3       4       5       6       7       8       9
      2.947  -0.012  -0.031  -0.122   0.054   0.090  -0.094  -0.042   0.113
     -0.515  -0.065   0.059   0.050   0.031  -0.134   0.105   0.057  -0.109


   Upper and lower wings at the   15 th omega  29.4737   0.0000 [eV]
       1       2       3       4       5       6       7       8       9
      1.962   0.029  -0.000  -0.051   0.021   0.055  -0.063   0.003   0.035
     -0.100  -0.036   0.047   0.027  -0.001  -0.052   0.052   0.000  -0.027
       1       2       3       4       5       6       7       8       9
      1.962   0.000  -0.029  -0.035  -0.003   0.063  -0.055  -0.021   0.051
     -0.100  -0.047   0.036   0.027  -0.000  -0.052   0.052   0.001  -0.027


   Upper and lower wings at the   16 th omega  31.5789   0.0000 [eV]
       1       2       3       4       5       6       7       8       9
      1.655   0.042  -0.014  -0.040   0.023   0.029  -0.038   0.004   0.022
     -0.101  -0.031   0.051   0.035  -0.004  -0.081   0.092  -0.031  -0.012
       1       2       3       4       5       6       7       8       9
      1.655   0.014  -0.042  -0.022  -0.004   0.038  -0.029  -0.023   0.040
     -0.101  -0.051   0.031   0.012   0.031  -0.092   0.081   0.004  -0.035


   Upper and lower wings at the   17 th omega  33.6842   0.0000 [eV]
       1       2       3       4       5       6       7       8       9
      1.506   0.034  -0.023  -0.031   0.001   0.069  -0.073   0.011   0.023
     -0.056  -0.006   0.026  -0.004   0.020  -0.040   0.035  -0.004  -0.006
       1       2       3       4       5       6       7       8       9
      1.506   0.023  -0.034  -0.023  -0.011   0.073  -0.069  -0.001   0.031
     -0.056  -0.026   0.006   0.006   0.004  -0.035   0.040  -0.020   0.004


   Upper and lower wings at the   18 th omega  35.7895   0.0000 [eV]
       1       2       3       4       5       6       7       8       9
      1.403   0.018  -0.012  -0.019   0.001   0.041  -0.044   0.008   0.013
     -0.040  -0.003   0.014   0.011  -0.001  -0.017   0.016   0.004  -0.013
       1       2       3       4       5       6       7       8       9
      1.403   0.012  -0.018  -0.013  -0.008   0.044  -0.041  -0.001   0.019
     -0.040  -0.014   0.003   0.013  -0.004  -0.016   0.017   0.001  -0.011


   Upper and lower wings at the   19 th omega  37.8947   0.0000 [eV]
       1       2       3       4       5       6       7       8       9
      1.361   0.026  -0.022  -0.023  -0.002   0.052  -0.052   0.004   0.021
     -0.019   0.003   0.014   0.002   0.005  -0.014   0.011   0.003  -0.007
       1       2       3       4       5       6       7       8       9
      1.361   0.022  -0.026  -0.021  -0.004   0.052  -0.052   0.002   0.023
     -0.019  -0.014  -0.003   0.007  -0.003  -0.011   0.014  -0.005  -0.002


   Upper and lower wings at the   20 th omega  40.0000   0.0000 [eV]
       1       2       3       4       5       6       7       8       9
      1.284   0.014  -0.014  -0.016  -0.001   0.033  -0.033   0.001   0.016
     -0.004   0.005   0.005  -0.001   0.002  -0.002   0.000   0.002  -0.002
       1       2       3       4       5       6       7       8       9
      1.284   0.014  -0.014  -0.016  -0.001   0.033  -0.033   0.001   0.016
     -0.004  -0.005  -0.005   0.002  -0.002  -0.000   0.002  -0.002   0.001


   Upper and lower wings at the   21 th omega   0.0000   4.7390 [eV]
       1       2       3       4       5       6       7       8       9
      0.464  -0.010   0.010   0.009   0.001  -0.021   0.021  -0.001  -0.009
     -0.000  -0.003  -0.003   0.000  -0.001   0.000   0.000  -0.001   0.000
       1       2       3       4       5       6       7       8       9
      0.464  -0.010   0.010   0.009   0.001  -0.021   0.021  -0.001  -0.009
     -0.000   0.003   0.003  -0.000   0.001  -0.000  -0.000   0.001  -0.000


   Upper and lower wings at the   22 th omega   0.0000  12.2616 [eV]
       1       2       3       4       5       6       7       8       9
      0.586  -0.009   0.009   0.009   0.001  -0.020   0.020  -0.001  -0.009
      0.000  -0.003  -0.003   0.000  -0.000   0.000   0.000  -0.000   0.000
       1       2       3       4       5       6       7       8       9
      0.586  -0.009   0.009   0.009   0.001  -0.020   0.020  -0.001  -0.009
      0.000   0.003   0.003  -0.000   0.000  -0.000  -0.000   0.000  -0.000


   Upper and lower wings at the   23 th omega   0.0000  24.2030 [eV]
       1       2       3       4       5       6       7       8       9
      0.755  -0.006   0.006   0.007   0.000  -0.015   0.015  -0.000  -0.007
     -0.000  -0.002  -0.002   0.000  -0.000   0.000   0.000  -0.000   0.000
       1       2       3       4       5       6       7       8       9
      0.755  -0.006   0.006   0.007   0.000  -0.015   0.015  -0.000  -0.007
     -0.000   0.002   0.002  -0.000   0.000  -0.000  -0.000   0.000  -0.000


   Upper and lower wings at the   24 th omega   0.0000  43.1589 [eV]
       1       2       3       4       5       6       7       8       9
      0.886  -0.003   0.003   0.004   0.000  -0.008   0.008  -0.000  -0.004
      0.000  -0.001  -0.001   0.000  -0.000   0.000   0.000  -0.000   0.000
       1       2       3       4       5       6       7       8       9
      0.886  -0.003   0.003   0.004   0.000  -0.008   0.008  -0.000  -0.004
      0.000   0.001   0.001  -0.000   0.000  -0.000  -0.000   0.000  -0.000


   Upper and lower wings at the   25 th omega   0.0000  73.2494 [eV]
       1       2       3       4       5       6       7       8       9
      0.953  -0.001   0.001   0.002   0.000  -0.003   0.003  -0.000  -0.002
     -0.000  -0.000  -0.000   0.000  -0.000   0.000   0.000  -0.000   0.000
       1       2       3       4       5       6       7       8       9
      0.953  -0.001   0.001   0.002   0.000  -0.003   0.003  -0.000  -0.002
     -0.000   0.000   0.000  -0.000   0.000  -0.000  -0.000   0.000  -0.000




--------------------------------------------------------------------------------
  q-point number  2        q = ( 0.250000, 0.000000, 0.000000) [r.l.u.]
--------------------------------------------------------------------------------
  chi0(G,G') at the    1 th omega   0.0000   0.0000 [eV]
       1       2       3       4       5       6       7       8       9
    1  -3.157  -0.148   0.399   0.969   0.825  -0.069   0.825  -0.069  -0.908
       -0.000  -0.256  -0.690  -0.000  -0.040   0.016   0.040  -0.016   0.000

    2  -0.148 -19.235  -0.102   2.798   1.196  -3.417  -2.460   1.519   0.399
        0.256  -0.000  -0.177  -4.846   2.150   0.219   0.040   3.069  -0.691

  chi0(G,G') at the    2 th omega   2.1053   0.0000 [eV]
       1       2       3       4       5       6       7       8       9
    1  -3.256  -0.149   0.418   0.993   0.849  -0.070   0.848  -0.069  -0.936
       -0.028  -0.263  -0.710   0.007  -0.035   0.017   0.049  -0.017  -0.008

    2  -0.153 -19.687  -0.105   2.901   1.209  -3.513  -2.522   1.539   0.418
        0.261  -0.145  -0.185  -4.939   2.213   0.193   0.021   3.165  -0.709

  chi0(G,G') at the    3 th omega   4.2105   0.0000 [eV]
       1       2       3       4       5       6       7       8       9
    1  -3.608  -0.160   0.469   1.074   0.934  -0.069   0.932  -0.068  -1.038
       -0.039  -0.282  -0.791   0.010  -0.042   0.020   0.061  -0.021  -0.011

    2  -0.164 -21.239  -0.118   3.137   1.311  -3.839  -2.734   1.688   0.463
        0.279  -0.187  -0.211  -5.324   2.400   0.190   0.014   3.455  -0.783

  chi0(G,G') at the    4 th omega   6.3158   0.0000 [eV]
       1       2       3       4       5       6       7       8       9
    1  -4.538  -0.174   0.612   1.260   1.160  -0.061   1.152  -0.061  -1.314
       -0.089  -0.311  -1.001   0.016  -0.067   0.028   0.111  -0.028  -0.027

    2  -0.182 -24.900  -0.148   3.754   1.565  -4.623  -3.236   2.007   0.534
        0.306  -0.390  -0.321  -6.233   2.870   0.186  -0.050   4.141  -0.941

  chi0(G,G') at the    5 th omega   8.4211   0.0000 [eV]
       1       2       3       4       5       6       7       8       9
    1  -6.660  -0.535   1.142   1.731   1.683  -0.202   1.462   0.028  -1.988
       -2.193  -0.225  -1.383   0.256   0.459   0.167   0.769  -0.152  -0.682

    2   0.073 -33.790   0.077   5.515   1.578  -6.476  -4.149   2.794   0.762
        0.575  -3.653  -0.774  -7.806   4.044  -0.816  -0.442   5.872  -1.197

  chi0(G,G') at the    6 th omega  10.5263   0.0000 [eV]
       1       2       3       4       5       6       7       8       9
    1  -2.836  -0.415   2.848   2.361   0.432  -0.717   0.621  -0.285   0.303
       -6.551  -2.330   0.601   1.035   1.811  -0.098   1.401   0.552  -2.010

    2  -1.810 -39.631   0.577  11.010  -0.327  -7.281  -5.952  -0.303   3.616
        1.524 -25.856  -0.236  -8.084   7.497  -5.279  -3.062  11.524  -2.788

  chi0(G,G') at the    7 th omega  12.6316   0.0000 [eV]
       1       2       3       4       5       6       7       8       9
    1  -1.057   0.879   2.273   0.321   0.630   0.836   1.120  -0.283  -0.961
       -5.377  -0.819   0.041   2.193   2.239  -0.657   0.086  -0.000  -0.918

    2  -1.149 -16.461  -0.830  13.917  -4.811  -2.279  -1.955  -9.454   3.584
       -0.352 -39.138  -0.686  -0.051   3.658  -7.049  -6.814   4.669   2.691

  chi0(G,G') at the    8 th omega  14.7368   0.0000 [eV]
       1       2       3       4       5       6       7       8       9
    1  -0.112   1.354   1.384   0.096  -0.169  -0.322   0.305  -0.474  -0.348
       -5.893   0.610   2.280   0.673   0.832   1.321   2.391  -0.848  -2.317

    2  -0.149 -13.073   0.258  13.272  -3.117  -1.012  -2.281 -11.418   2.611
       -1.478 -38.683  -0.676   2.822   3.525 -10.935  -4.755   3.591   2.794

  chi0(G,G') at the    9 th omega  16.8421   0.0000 [eV]
       1       2       3       4       5       6       7       8       9
    1   1.778   0.831   0.352   1.034   0.119  -0.971  -1.243   0.476   0.581
       -4.910  -0.240   1.867   2.012   1.191  -0.644   1.929  -0.704  -1.602

    2  -0.623  -0.626  -0.116  12.863  -5.561   3.231   1.525 -10.028   0.214
       -0.599 -42.093  -0.032   8.524   2.226  -4.950 -11.633  -0.079   5.445

  chi0(G,G') at the   10 th omega  18.9474   0.0000 [eV]
       1       2       3       4       5       6       7       8       9
    1   2.753   0.517  -0.846  -0.179  -0.573  -0.314  -1.244   0.001   0.902
       -3.133   0.674   1.148   1.818   1.328  -0.581   1.171  -0.140  -0.955

    2   0.325  17.836   0.368   4.372  -4.709   3.440   4.637  -6.120  -4.769
       -0.785 -27.951   0.351   9.050  -3.262  -1.985  -1.265  -4.236   1.282

  chi0(G,G') at the   11 th omega  21.0526   0.0000 [eV]
       1       2       3       4       5       6       7       8       9
    1   3.163  -0.161  -0.563  -1.540  -0.897   0.578  -0.675   0.120   1.110
       -1.937   0.389   0.217   1.446   0.870  -0.312   0.491  -0.187  -0.459

    2   0.417  20.473  -0.600  -1.348  -0.782   4.413   2.587  -1.287  -1.289
       -0.055 -18.162   0.180   8.722  -1.670  -0.505  -1.217  -4.710  -2.100

  chi0(G,G') at the   12 th omega  23.1579   0.0000 [eV]
       1       2       3       4       5       6       7       8       9
    1   2.423  -0.172  -0.147  -1.228  -0.931   0.171  -0.564   0.077   0.747
       -0.683   0.158  -0.141   0.358   0.343  -0.034   0.341   0.073  -0.269

    2   0.223  19.209   0.055  -1.022  -2.359   2.493   1.747   0.188   0.290
        0.070 -11.353   0.385   4.748  -2.017   0.331  -0.352  -2.332  -1.078

  chi0(G,G') at the   13 th omega  25.2632   0.0000 [eV]
       1       2       3       4       5       6       7       8       9
    1   1.748   0.149   0.005  -0.636  -0.549   0.103  -0.515   0.156   0.564
       -0.275  -0.006   0.257   0.116   0.023  -0.064   0.275  -0.230  -0.222

    2  -0.080  13.122  -0.048   0.237  -1.320   1.953   1.269  -0.122   0.144
       -0.126  -6.653   0.117   3.799  -1.218  -0.405  -0.680  -1.596  -0.009

  chi0(G,G') at the   14 th omega  27.3684   0.0000 [eV]
       1       2       3       4       5       6       7       8       9
    1   1.339   0.031  -0.108  -0.478  -0.421   0.061  -0.450   0.090   0.467
       -0.140   0.016   0.195   0.138   0.155  -0.002   0.218  -0.008  -0.027

    2  -0.002  11.845  -0.004  -1.341  -0.748   1.255   1.554  -0.247  -0.129
       -0.035  -4.395   0.031   4.100  -1.630  -0.164  -0.225  -1.221   0.209

  chi0(G,G') at the   15 th omega  29.4737   0.0000 [eV]
       1       2       3       4       5       6       7       8       9
    1   1.049   0.059  -0.079  -0.354  -0.347   0.068  -0.310   0.022   0.289
       -0.103   0.077   0.185   0.123   0.112  -0.028   0.005  -0.017  -0.035

    2   0.037   9.977  -0.013  -1.020  -0.343   0.798   0.736  -0.169  -0.084
       -0.089  -1.998  -0.007   2.314  -1.038  -0.007   0.085  -0.706  -0.075

 No. of calculated frequencies >  15, stop printing
  Average fulfillment of the sum rule on Im[epsilon] for q-point    2 :     35.07  [%]


--------------------------------------------------------------------------------
  q-point number  3        q = ( 0.500000, 0.000000, 0.000000) [r.l.u.]
--------------------------------------------------------------------------------
  chi0(G,G') at the    1 th omega   0.0000   0.0000 [eV]
       1       2       3       4       5       6       7       8       9
    1 -10.362  -0.041   0.767   1.736   1.828   0.589   1.828   0.589  -1.296
       -0.000  -0.071  -1.329  -0.000  -0.121   0.039   0.121  -0.039   0.000

    2  -0.041 -21.381  -0.313   3.333   1.495  -3.916  -3.091   1.793   0.031
        0.071  -0.000  -0.542  -5.773   2.706   0.191   0.059   3.487  -0.053

  chi0(G,G') at the    2 th omega   2.1053   0.0000 [eV]
       1       2       3       4       5       6       7       8       9
    1 -10.651  -0.039   0.801   1.774   1.876   0.606   1.873   0.607  -1.338
       -0.086  -0.067  -1.361   0.013  -0.113   0.047   0.142  -0.037  -0.012

    2  -0.039 -21.875  -0.319   3.448   1.508  -4.026  -3.161   1.821   0.037
        0.067  -0.159  -0.564  -5.876   2.778   0.156   0.038   3.596  -0.060

  chi0(G,G') at the    3 th omega   4.2105   0.0000 [eV]
       1       2       3       4       5       6       7       8       9
    1 -11.662  -0.030   0.883   1.905   2.043   0.665   2.038   0.667  -1.490
       -0.116  -0.049  -1.493   0.016  -0.132   0.059   0.171  -0.045  -0.017

    2  -0.028 -23.569  -0.356   3.711   1.619  -4.403  -3.402   2.011   0.051
        0.051  -0.206  -0.634  -6.305   2.992   0.133   0.035   3.924  -0.084

  chi0(G,G') at the    4 th omega   6.3158   0.0000 [eV]
       1       2       3       4       5       6       7       8       9
    1 -14.158   0.016   1.119   2.195   2.466   0.795   2.460   0.799  -1.923
       -0.240   0.027  -1.829   0.026  -0.193   0.090   0.272  -0.079  -0.050

    2   0.016 -27.581  -0.415   4.388   1.866  -5.302  -3.990   2.466   0.081
       -0.027  -0.440  -0.879  -7.321   3.569   0.047  -0.035   4.705  -0.126

  chi0(G,G') at the    5 th omega   8.4211   0.0000 [eV]
       1       2       3       4       5       6       7       8       9
    1 -21.514  -0.347   1.826   2.852   3.872   1.273   3.273   1.609  -2.959
       -4.332   1.133  -2.156   0.108   0.574   0.353   1.330  -0.391  -1.260

    2   1.154 -36.436  -0.005   6.445   1.780  -7.683  -4.785   3.357  -0.061
       -0.266  -3.980  -1.412  -8.640   4.487  -1.092  -0.555   7.399  -0.487

  chi0(G,G') at the    6 th omega  10.5263   0.0000 [eV]
       1       2       3       4       5       6       7       8       9
    1 -15.738  -1.427   4.274   5.276   1.128   0.017   1.177   1.178   1.707
      -20.249  -3.826  -0.868   1.772   2.828   1.268   1.536   2.116  -1.409

    2  -2.600 -41.924   1.092  12.066  -0.581  -6.438  -7.020  -0.963   2.307
        3.149 -26.091  -0.550  -8.238   7.310  -7.943  -2.179  12.742  -1.130

  chi0(G,G') at the    7 th omega  12.6316   0.0000 [eV]
       1       2       3       4       5       6       7       8       9
    1  -5.329   1.117   3.315   0.861   2.393   1.196   2.679  -0.806  -2.224
      -18.320  -1.513  -0.429   4.738   3.677   0.133   1.563   1.169  -1.389

    2  -1.868 -19.844  -0.473  14.942  -2.268  -2.420  -4.886  -9.844   1.756
       -0.211 -43.164  -2.800  -3.213   5.085  -6.311  -5.444   4.704   2.078

  chi0(G,G') at the    8 th omega  14.7368   0.0000 [eV]
       1       2       3       4       5       6       7       8       9
    1  -2.476   1.663   2.106  -1.369   0.442  -0.243   1.471  -0.129  -0.463
      -20.853   1.821   2.634   1.551   2.933   3.088   3.802   1.281  -3.755

    2   0.746 -15.484   0.031  13.395  -1.121  -1.221  -5.799  -8.276  -0.545
       -2.350 -36.400  -1.281   0.560   5.660  -9.718  -5.070   3.387   2.681

  chi0(G,G') at the    9 th omega  16.8421   0.0000 [eV]
       1       2       3       4       5       6       7       8       9
    1   5.142   0.029   1.877   2.274  -0.886  -0.057  -1.272  -0.089   1.076
      -17.982  -0.963   3.709   1.982   2.854   1.464   4.209   0.034  -1.766

    2  -0.849  -2.751   2.462  14.919  -4.964   1.635   0.841 -11.906  -1.803
        0.456 -43.517   1.314   5.260   5.253  -5.219 -10.186   0.512   3.175

  chi0(G,G') at the   10 th omega  18.9474   0.0000 [eV]
       1       2       3       4       5       6       7       8       9
    1   9.431   0.238  -0.438   0.445  -1.584  -1.455  -2.293  -0.422   1.874
      -12.003   0.679   2.344   2.203   4.084   0.662   2.744   1.263  -1.318

    2   0.469  17.990   0.569   8.411  -7.236   3.621   3.734  -7.122  -3.338
       -0.545 -34.889  -1.183  10.830  -0.372  -3.578  -5.145  -4.482  -0.492

  chi0(G,G') at the   11 th omega  21.0526   0.0000 [eV]
       1       2       3       4       5       6       7       8       9
    1  10.652   0.039  -0.782  -2.253  -1.407  -0.195  -1.681  -0.503   1.892
       -7.828   0.452   1.166   3.234   1.302  -0.125   1.360   0.416  -0.537

    2   0.372  23.792  -0.148   0.336  -3.361   4.185   4.439  -2.726  -1.421
       -0.260 -22.022   1.076  10.222  -3.171  -2.475  -2.043  -4.535  -3.151

  chi0(G,G') at the   12 th omega  23.1579   0.0000 [eV]
       1       2       3       4       5       6       7       8       9
    1   8.681  -0.014  -0.372  -2.463  -1.722  -0.816  -1.424  -0.507   0.819
       -3.272   0.451   0.575   0.844   1.355   0.030   0.723   0.149  -0.198

    2   0.398  20.247   0.731   1.371  -3.941   3.236   3.115  -1.139   0.425
       -0.213 -13.302   0.739   6.618  -2.408  -1.031  -1.255  -3.299  -1.744

  chi0(G,G') at the   13 th omega  25.2632   0.0000 [eV]
       1       2       3       4       5       6       7       8       9
    1   6.383  -0.029  -0.009  -1.202  -1.253  -0.209  -0.934  -0.352   0.782
       -1.560   0.111   0.911   0.485   0.445  -0.144   0.979  -0.416  -0.321

    2   0.111  14.170  -0.367   2.179  -2.594   2.587   1.526  -0.801   0.761
       -0.030  -8.650   0.832   6.123  -1.578  -0.719  -1.371  -1.800  -0.432

  chi0(G,G') at the   14 th omega  27.3684   0.0000 [eV]
       1       2       3       4       5       6       7       8       9
    1   5.131  -0.147  -0.307  -0.835  -1.064  -0.254  -1.322  -0.227   0.653
       -0.880  -0.101   0.548   0.421   0.612  -0.079   0.831  -0.150   0.025

    2  -0.014  13.720  -0.091  -0.699  -1.870   2.100   2.547  -0.094   0.244
        0.178  -6.049   0.026   5.846  -1.688  -0.154  -1.108  -1.570  -0.103

  chi0(G,G') at the   15 th omega  29.4737   0.0000 [eV]
       1       2       3       4       5       6       7       8       9
    1   4.037  -0.042  -0.198  -0.693  -1.054  -0.027  -0.924  -0.133   0.404
       -0.501  -0.023   0.442   0.402   0.294  -0.050   0.123  -0.005  -0.037

    2   0.001  11.399  -0.045  -0.847  -1.459   1.209   1.314  -0.325   0.048
        0.048  -2.888   0.140   3.861  -1.826  -0.108  -0.224  -0.923  -0.138

 No. of calculated frequencies >  15, stop printing
  Average fulfillment of the sum rule on Im[epsilon] for q-point    3 :     28.34  [%]


--------------------------------------------------------------------------------
  q-point number  4        q = ( 0.250000, 0.250000, 0.000000) [r.l.u.]
--------------------------------------------------------------------------------
  chi0(G,G') at the    1 th omega   0.0000   0.0000 [eV]
       1       2       3       4       5       6       7       8       9
    1  -8.280  -0.924   0.373   1.580   1.235  -0.722   1.580   1.235  -0.722
       -0.000   0.102  -0.851   0.075  -0.078   0.004   0.075  -0.078   0.004

    2  -0.924 -20.539   0.212   2.753   1.213  -1.750  -3.253   2.113   0.258
       -0.102  -0.000  -0.367  -5.742   2.210  -0.004   0.120   4.794  -0.768

  chi0(G,G') at the    2 th omega   2.1053   0.0000 [eV]
       1       2       3       4       5       6       7       8       9
    1  -8.519  -0.950   0.389   1.617   1.272  -0.743   1.617   1.272  -0.743
       -0.070   0.099  -0.872   0.091  -0.072  -0.002   0.091  -0.072  -0.002

    2  -0.947 -21.011   0.221   2.857   1.227  -1.812  -3.331   2.133   0.275
       -0.115  -0.152  -0.376  -5.851   2.272  -0.025   0.101   4.927  -0.792

  chi0(G,G') at the    3 th omega   4.2105   0.0000 [eV]
       1       2       3       4       5       6       7       8       9
    1  -9.361  -1.035   0.417   1.747   1.400  -0.821   1.747   1.400  -0.821
       -0.096   0.116  -0.954   0.112  -0.085  -0.003   0.112  -0.085  -0.003

    2  -1.031 -22.629   0.246   3.082   1.326  -2.032  -3.598   2.318   0.308
       -0.135  -0.197  -0.415  -6.287   2.452  -0.047   0.112   5.327  -0.883

  chi0(G,G') at the    4 th omega   6.3158   0.0000 [eV]
       1       2       3       4       5       6       7       8       9
    1 -11.474  -1.228   0.488   2.061   1.722  -1.039   2.061   1.722  -1.039
       -0.197   0.145  -1.136   0.183  -0.126  -0.015   0.183  -0.126  -0.015

    2  -1.230 -26.470   0.291   3.686   1.579  -2.559  -4.297   2.713   0.376
       -0.189  -0.442  -0.543  -7.335   2.908  -0.119   0.110   6.276  -1.102

  chi0(G,G') at the    5 th omega   8.4211   0.0000 [eV]
       1       2       3       4       5       6       7       8       9
    1 -17.915  -1.960   0.394   2.694   3.068  -1.738   2.694   3.068  -1.737
       -4.384   0.676  -2.035   0.801   0.362  -0.565   0.801   0.362  -0.565

    2  -1.071 -34.607   0.914   5.467   1.572  -3.795  -5.486   3.274   1.092
       -0.417  -3.692  -0.340  -8.749   3.961  -0.888  -0.404   8.670  -1.730

  chi0(G,G') at the    6 th omega  10.5263   0.0000 [eV]
       1       2       3       4       5       6       7       8       9
    1 -10.742  -2.621   4.896   3.090   0.226   0.386   3.090   0.226   0.386
      -16.510  -4.140  -0.200   1.306   3.200  -1.282   1.306   3.200  -1.282

    2  -2.596 -42.439  -0.248  12.482  -0.073  -4.547  -7.871  -0.054   3.476
       -0.583 -25.534   0.778  -8.924   6.514  -6.495  -2.935  15.381  -2.467

  chi0(G,G') at the    7 th omega  12.6316   0.0000 [eV]
       1       2       3       4       5       6       7       8       9
    1  -4.270  -1.576   3.225   2.116   0.266  -0.122   2.116   0.266  -0.122
      -14.347  -2.814   0.042   2.131   2.190  -0.703   2.131   2.190  -0.703

    2  -1.249 -22.103   0.424  15.176  -2.505   1.121  -4.076 -11.539   4.068
       -1.672 -41.146  -1.162  -4.324   4.628  -3.681  -5.644   9.620   0.717

  chi0(G,G') at the    8 th omega  14.7368   0.0000 [eV]
       1       2       3       4       5       6       7       8       9
    1  -1.444   1.149   0.455  -0.451   0.928  -1.298  -0.451   0.928  -1.298
      -16.154  -1.189   1.590   2.440   2.687  -1.226   2.440   2.687  -1.226

    2   1.286 -15.186   3.011  12.537  -3.303   2.648  -2.828 -10.321   1.713
       -2.909 -36.978  -0.551  -0.647   6.095  -5.652  -5.442   7.424   2.153

  chi0(G,G') at the    9 th omega  16.8421   0.0000 [eV]
       1       2       3       4       5       6       7       8       9
    1   4.183   1.511   1.565   1.704  -1.000   0.194   1.704  -1.000   0.193
      -13.540  -2.679   2.648   2.181   1.254  -1.061   2.181   1.254  -1.061

    2   0.436  -4.624   1.274  14.144  -4.951   3.992  -0.578 -13.104   1.840
       -1.255 -43.697  -0.574   5.296   1.669  -0.772 -12.663   5.007   7.113

  chi0(G,G') at the   10 th omega  18.9474   0.0000 [eV]
       1       2       3       4       5       6       7       8       9
    1   7.446   1.528  -0.291  -0.693  -1.705   0.483  -0.693  -1.705   0.483
       -9.132  -0.546   1.597   2.831   1.624  -1.053   2.831   1.624  -1.053

    2   1.684  16.519   0.340   7.949  -6.159   2.216   6.543 -12.163  -4.281
        0.169 -33.512   1.608   8.392  -2.550   1.605  -3.076  -2.805   0.093

  chi0(G,G') at the   11 th omega  21.0526   0.0000 [eV]
       1       2       3       4       5       6       7       8       9
    1   8.509   0.809  -0.309  -2.063  -0.702   1.154  -2.063  -0.702   1.154
       -5.999  -0.110   0.755   2.281   0.875  -0.404   2.281   0.875  -0.404

    2   1.144  22.871  -0.593   1.000  -2.071   0.643   3.506  -5.392  -2.151
        0.217 -21.666   0.391  10.110  -2.158   1.912  -1.917  -5.037  -2.121

  chi0(G,G') at the   12 th omega  23.1579   0.0000 [eV]
       1       2       3       4       5       6       7       8       9
    1   6.715   0.282  -0.501  -1.974  -0.801   0.262  -1.974  -0.801   0.262
       -2.242   0.416   0.036   0.483   0.920  -0.481   0.483   0.920  -0.481

    2   0.800  20.527   0.195   0.772  -2.901   0.238   3.271  -2.795   0.486
        0.051 -11.792   0.295   6.418  -1.970   0.564  -1.685  -4.420  -1.293

  chi0(G,G') at the   13 th omega  25.2632   0.0000 [eV]
       1       2       3       4       5       6       7       8       9
    1   4.916   0.497   0.023  -0.994  -0.794   0.562  -0.994  -0.794   0.562
       -0.997  -0.313   0.587   0.658  -0.074  -0.195   0.658  -0.074  -0.195

    2   0.502  14.311  -0.320   1.710  -1.336   0.386   1.798  -2.355   0.736
       -0.088  -7.893   0.065   5.531  -1.592   0.064  -1.821  -2.716   0.008

  chi0(G,G') at the   14 th omega  27.3684   0.0000 [eV]
       1       2       3       4       5       6       7       8       9
    1   3.921   0.334  -0.058  -0.911  -0.603   0.453  -0.911  -0.603   0.453
       -0.569  -0.126   0.352   0.539   0.184  -0.069   0.539   0.184  -0.069

    2   0.268  13.170  -0.063  -0.930  -0.768   0.112   2.030  -0.874   0.137
        0.251  -4.838  -0.116   5.510  -1.352   0.089  -1.181  -3.081   0.148

  chi0(G,G') at the   15 th omega  29.4737   0.0000 [eV]
       1       2       3       4       5       6       7       8       9
    1   3.072   0.231  -0.089  -0.679  -0.622   0.314  -0.679  -0.622   0.314
       -0.342  -0.031   0.215   0.139   0.082  -0.028   0.139   0.082  -0.028

    2   0.221  10.871  -0.057  -0.846  -0.638  -0.007   1.419  -0.789  -0.022
        0.001  -2.367  -0.045   3.556  -1.260   0.008  -0.339  -1.876   0.056

 No. of calculated frequencies >  15, stop printing
  Average fulfillment of the sum rule on Im[epsilon] for q-point    4 :     28.62  [%]


--------------------------------------------------------------------------------
  q-point number  5        q = ( 0.000000, 0.000000, 0.333333) [r.l.u.]
--------------------------------------------------------------------------------
  chi0(G,G') at the    1 th omega   0.0000   0.0000 [eV]
       1       2       3       4       5       6       7       8       9
    1  -3.471  -0.000   0.000   0.082   0.634   0.082   0.634   0.082   0.634
       -0.000  -0.000   0.000  -0.000  -0.000  -0.000  -0.000  -0.000   0.000

    2  -0.000 -22.425  -0.000   2.815   1.462  -5.630  -2.925   2.815   1.462
        0.000  -0.000   0.000  -4.876   2.533  -0.000  -0.000   4.876  -2.533

  chi0(G,G') at the    2 th omega   2.1053   0.0000 [eV]
       1       2       3       4       5       6       7       8       9
    1  -3.578  -0.000   0.000   0.085   0.651   0.085   0.651   0.085   0.651
       -0.031  -0.000   0.000   0.001   0.005   0.001   0.005   0.001   0.005

    2  -0.000 -22.898  -0.000   2.913   1.475  -5.755  -2.985   2.842   1.511
        0.000  -0.159   0.000  -4.963   2.596  -0.041  -0.021   5.004  -2.575

  chi0(G,G') at the    3 th omega   4.2105   0.0000 [eV]
       1       2       3       4       5       6       7       8       9
    1  -3.963  -0.000  -0.000   0.093   0.710   0.093   0.710   0.093   0.710
       -0.043  -0.000   0.000   0.001   0.007   0.001   0.007   0.001   0.007

    2  -0.000 -24.503  -0.000   3.135   1.571  -6.179  -3.185   3.044   1.615
        0.000  -0.200   0.000  -5.325   2.771  -0.052  -0.025   5.377  -2.746

  chi0(G,G') at the    4 th omega   6.3158   0.0000 [eV]
       1       2       3       4       5       6       7       8       9
    1  -4.980  -0.000  -0.000   0.119   0.848   0.119   0.848   0.119   0.848
       -0.099  -0.000   0.000   0.001   0.012   0.001   0.012   0.001   0.012

    2  -0.000 -28.149  -0.000   3.678   1.764  -7.172  -3.589   3.494   1.825
       -0.000  -0.364   0.000  -6.158   3.126  -0.106  -0.036   6.264  -3.090

  chi0(G,G') at the    5 th omega   8.4211   0.0000 [eV]
       1       2       3       4       5       6       7       8       9
    1  -7.503   0.000  -0.000   0.038   1.262   0.038   1.262   0.038   1.262
       -2.124   0.000  -0.000   0.134   0.116   0.134   0.116   0.134   0.116

    2   0.000 -36.708  -0.000   5.157   2.022  -9.237  -4.512   4.080   2.491
       -0.000  -2.690  -0.000  -7.689   4.043  -0.621  -0.271   8.310  -3.772

  chi0(G,G') at the    6 th omega  10.5263   0.0000 [eV]
       1       2       3       4       5       6       7       8       9
    1  -3.509  -0.000  -0.000   0.100   1.074   0.100   1.074   0.100   1.074
       -6.180  -0.000  -0.000  -0.032   0.731  -0.032   0.731  -0.032   0.731

    2  -0.000 -45.416  -0.000  10.501   3.475 -11.867 -10.108   1.365   6.633
        0.000 -22.222   0.000  -7.640   9.665  -5.275  -1.823  12.914  -7.842

  chi0(G,G') at the    7 th omega  12.6316   0.0000 [eV]
       1       2       3       4       5       6       7       8       9
    1  -0.945  -0.000   0.000   0.055  -0.013   0.055  -0.013   0.055  -0.013
       -6.158   0.000   0.000   0.355   0.952   0.355   0.952   0.355   0.952

    2   0.000 -26.975  -0.000  11.723  -3.636  -6.561  -1.755  -5.163   5.391
        0.000 -36.295  -0.000  -0.807   4.126  -9.749  -5.212  10.556   1.086

  chi0(G,G') at the    8 th omega  14.7368   0.0000 [eV]
       1       2       3       4       5       6       7       8       9
    1  -1.247   0.000   0.000  -0.569   0.686  -0.569   0.686  -0.569   0.686
       -6.541  -0.000  -0.000  -0.347   1.390  -0.347   1.390  -0.347   1.390

    2  -0.000 -24.324  -0.000  14.058  -2.298  -7.294  -4.493  -6.764   6.791
        0.000 -37.553  -0.000  -0.306   6.515 -12.021  -5.248  12.327  -1.267

  chi0(G,G') at the    9 th omega  16.8421   0.0000 [eV]
       1       2       3       4       5       6       7       8       9
    1   2.339  -0.000  -0.000   0.286   0.033   0.286   0.033   0.286   0.033
       -5.482  -0.000   0.000  -0.231   1.254  -0.231   1.254  -0.231   1.254

    2  -0.000 -10.635  -0.000  14.983  -9.559  -1.564   1.160 -13.419   8.399
       -0.000 -51.373   0.000   6.845   4.180 -16.398 -10.369   9.553   6.189

  chi0(G,G') at the   10 th omega  18.9474   0.0000 [eV]
       1       2       3       4       5       6       7       8       9
    1   2.726  -0.000   0.000   0.483  -0.864   0.483  -0.864   0.483  -0.864
       -3.692   0.000  -0.000   0.559   0.779   0.559   0.779   0.559   0.779

    2   0.000  18.708   0.000   5.473  -5.337   6.872   6.140 -12.345  -0.803
       -0.000 -39.846  -0.000  11.095  -4.009 -10.288  -2.617  -0.807   6.626

  chi0(G,G') at the   11 th omega  21.0526   0.0000 [eV]
       1       2       3       4       5       6       7       8       9
    1   3.484   0.000   0.000   0.182  -0.992   0.182  -0.992   0.182  -0.992
       -2.152  -0.000  -0.000   0.295   0.283   0.295   0.283   0.295   0.283

    2  -0.000  20.686  -0.000  -0.732  -3.293   8.806   3.549  -8.073  -0.257
       -0.000 -26.186   0.000   9.745  -2.197  -4.238  -1.753  -5.507   3.950

  chi0(G,G') at the   12 th omega  23.1579   0.0000 [eV]
       1       2       3       4       5       6       7       8       9
    1   2.763  -0.000  -0.000  -0.091  -0.788  -0.091  -0.788  -0.091  -0.788
       -0.748   0.000   0.000   0.226   0.267   0.226   0.267   0.226   0.267

    2   0.000  20.827   0.000  -0.620  -2.883   5.588   1.922  -4.968   0.960
       -0.000 -19.088  -0.000   6.095  -0.555  -2.510  -2.219  -3.584   2.774

  chi0(G,G') at the   13 th omega  25.2632   0.0000 [eV]
       1       2       3       4       5       6       7       8       9
    1   1.972   0.000  -0.000  -0.159  -0.384  -0.159  -0.384  -0.159  -0.384
       -0.310   0.000   0.000   0.118  -0.143   0.118  -0.143   0.118  -0.143

    2   0.000  15.373  -0.000  -0.706  -2.555   3.877   2.561  -3.170  -0.005
        0.000 -11.387  -0.000   4.069  -1.482  -1.423  -1.472  -2.646   2.954

  chi0(G,G') at the   14 th omega  27.3684   0.0000 [eV]
       1       2       3       4       5       6       7       8       9
    1   1.473  -0.000  -0.000  -0.082  -0.296  -0.082  -0.296  -0.082  -0.296
       -0.177  -0.000  -0.000   0.016  -0.070   0.016  -0.070   0.016  -0.070

    2   0.000  16.723   0.000  -0.717  -1.889   3.891   3.124  -3.174  -1.234
        0.000  -9.428   0.000   4.079  -2.516  -1.418  -0.378  -2.661   2.894

  chi0(G,G') at the   15 th omega  29.4737   0.0000 [eV]
       1       2       3       4       5       6       7       8       9
    1   1.184   0.000   0.000  -0.078  -0.161  -0.078  -0.161  -0.078  -0.161
       -0.115  -0.000   0.000   0.012   0.021   0.012   0.021   0.012   0.021

    2  -0.000  14.572  -0.000  -1.244  -0.207   2.619   1.092  -1.375  -0.885
        0.000  -4.034   0.000   2.306  -1.141  -0.076   0.391  -2.230   0.750

 No. of calculated frequencies >  15, stop printing
  Average fulfillment of the sum rule on Im[epsilon] for q-point    5 :     35.30  [%]


--------------------------------------------------------------------------------
  q-point number  6        q = ( 0.250000, 0.000000, 0.333333) [r.l.u.]
--------------------------------------------------------------------------------
  chi0(G,G') at the    1 th omega   0.0000   0.0000 [eV]
       1       2       3       4       5       6       7       8       9
    1  -6.143  -0.264   0.205   0.780   1.379   0.121   1.379   0.121  -0.244
       -0.000  -0.458  -0.355  -0.000  -0.430  -0.497   0.430   0.497   0.000

    2  -0.264 -22.828  -0.075   3.399   1.713  -5.201  -3.424   2.549   1.149
        0.458  -0.000  -0.129  -5.888   2.965   0.059  -0.001   4.534  -1.991

  chi0(G,G') at the    2 th omega   2.1053   0.0000 [eV]
       1       2       3       4       5       6       7       8       9
    1  -6.325  -0.267   0.214   0.795   1.420   0.132   1.412   0.123  -0.251
       -0.053  -0.471  -0.364   0.005  -0.434  -0.513   0.456   0.516  -0.002

    2  -0.274 -23.313  -0.076   3.512   1.730  -5.321  -3.497   2.579   1.189
        0.467  -0.162  -0.133  -5.988   3.040   0.017  -0.027   4.656  -2.026

  chi0(G,G') at the    3 th omega   4.2105   0.0000 [eV]
       1       2       3       4       5       6       7       8       9
    1  -6.970  -0.288   0.236   0.841   1.553   0.157   1.541   0.143  -0.276
       -0.073  -0.509  -0.399   0.006  -0.486  -0.575   0.516   0.580  -0.003

    2  -0.297 -24.958  -0.082   3.766   1.857  -5.731  -3.745   2.788   1.276
        0.504  -0.205  -0.145  -6.402   3.254  -0.009  -0.044   5.011  -2.169

  chi0(G,G') at the    4 th omega   6.3158   0.0000 [eV]
       1       2       3       4       5       6       7       8       9
    1  -8.626  -0.341   0.288   0.911   1.913   0.216   1.861   0.205  -0.340
       -0.172  -0.568  -0.473   0.002  -0.625  -0.751   0.705   0.743   0.008

    2  -0.321 -28.744  -0.092   4.412   2.146  -6.692  -4.307   3.260   1.411
        0.579  -0.423  -0.171  -7.350   3.767  -0.113  -0.135   5.866  -2.454

  chi0(G,G') at the    5 th omega   8.4211   0.0000 [eV]
       1       2       3       4       5       6       7       8       9
    1 -13.032  -0.426   0.336   1.186   2.950   0.961   2.272  -0.019  -0.574
       -3.300  -0.671  -0.778  -0.146  -0.526  -0.856   1.580   1.542  -0.295

    2  -0.368 -37.392  -0.008   6.264   2.311  -8.808  -5.338   3.977   2.087
        0.705  -3.019  -0.409  -8.920   4.912  -0.767  -0.758   7.982  -3.023

  chi0(G,G') at the    6 th omega  10.5263   0.0000 [eV]
       1       2       3       4       5       6       7       8       9
    1  -7.427  -0.527   2.294   3.437   2.442   0.539   0.870  -1.918   1.083
      -12.145  -2.273  -0.370   0.391   2.898   1.185   0.860  -0.139  -0.162

    2  -1.705 -44.520   0.588  11.163   2.001  -9.562  -7.936   1.083   5.227
        1.593 -23.244  -0.731  -9.298  10.244  -7.145  -2.447  13.488  -5.808

  chi0(G,G') at the    7 th omega  12.6316   0.0000 [eV]
       1       2       3       4       5       6       7       8       9
    1  -1.990   0.587   1.443   0.015   1.258   1.868   1.193  -1.517  -0.626
      -11.193  -1.598   0.684   1.139   3.014  -1.673   2.774   2.244  -0.823

    2  -1.677 -28.892  -0.964  16.366  -5.089  -5.276  -3.539  -7.997   5.496
        0.291 -39.511  -0.773  -3.276   7.350  -7.306  -7.389  10.287   0.569

  chi0(G,G') at the    8 th omega  14.7368   0.0000 [eV]
       1       2       3       4       5       6       7       8       9
    1  -1.594   2.014   0.506  -0.931   0.954   0.296   0.984  -1.710   0.108
      -11.813   0.153   1.760   0.758   0.818   0.106   3.597   0.265  -0.282

    2  -0.875 -22.584   0.162  14.344  -3.158  -5.376  -4.487  -7.842   6.258
       -1.820 -38.971  -1.197  -0.252   6.342 -10.222  -5.799  10.048   1.273

  chi0(G,G') at the    9 th omega  16.8421   0.0000 [eV]
       1       2       3       4       5       6       7       8       9
    1   3.963   0.382  -0.156   1.214   2.541   0.845  -3.622  -1.408   0.588
      -10.614   0.046   0.438   0.929   3.575   1.438   2.767  -1.711  -1.720

    2  -0.151 -11.941   1.327  17.778  -6.506  -2.409  -1.236 -13.981   5.926
       -0.354 -49.024   0.145   4.113   5.574 -11.733 -12.143   8.824   6.827

  chi0(G,G') at the   10 th omega  18.9474   0.0000 [eV]
       1       2       3       4       5       6       7       8       9
    1   5.198   0.601  -0.107   0.665  -1.490  -1.327  -1.930   0.543   0.307
       -7.075   0.656   0.612   2.724   2.845   0.531   0.973  -0.815   0.016

    2   0.267  17.549   1.061   9.346  -8.398   4.358   6.099 -12.922  -1.181
       -0.849 -41.862   1.052  11.848  -2.331 -10.068  -3.958  -2.459   5.302

  chi0(G,G') at the   11 th omega  21.0526   0.0000 [eV]
       1       2       3       4       5       6       7       8       9
    1   6.233  -0.388  -0.219  -0.956  -1.745   0.361  -1.455   0.604   0.081
       -4.101  -0.005   0.027   1.617   1.906   0.386  -0.163   0.145  -0.354

    2   0.189  21.905  -0.369   0.979  -3.995   6.652   4.547  -7.633  -1.320
        0.339 -27.369   0.472  12.139  -3.888  -4.086  -4.262  -5.666   2.220

  chi0(G,G') at the   12 th omega  23.1579   0.0000 [eV]
       1       2       3       4       5       6       7       8       9
    1   5.024  -0.313  -0.153  -1.105  -1.359  -0.101  -1.212   0.039   0.059
       -1.371   0.063   0.006   0.572   0.790   0.215   0.277   0.176  -0.249

    2   0.211  20.675  -0.030   0.971  -3.512   4.470   1.427  -3.678   0.486
        0.239 -17.791  -0.134   7.011  -0.984  -2.264  -1.315  -4.213   1.590

  chi0(G,G') at the   13 th omega  25.2632   0.0000 [eV]
       1       2       3       4       5       6       7       8       9
    1   3.579   0.262  -0.063  -0.680  -0.903  -0.076  -0.919  -0.157   0.211
       -0.680  -0.248   0.181   0.078   0.254   0.259   0.064  -0.163  -0.295

    2  -0.346  14.960  -0.091   1.360  -2.991   4.229   2.641  -2.296  -0.320
       -0.103 -12.467   0.033   5.998  -0.938  -1.762  -2.840  -2.875   1.743

  chi0(G,G') at the   14 th omega  27.3684   0.0000 [eV]
       1       2       3       4       5       6       7       8       9
    1   2.778   0.182  -0.084  -0.404  -0.689  -0.081  -0.737  -0.000   0.255
       -0.333   0.094   0.052   0.063   0.334   0.190   0.076  -0.089  -0.085

    2  -0.009  16.290  -0.107  -0.668  -2.154   3.579   3.846  -2.359  -0.784
       -0.204  -9.530   0.024   6.214  -2.788  -0.931  -0.982  -2.437   1.817

  chi0(G,G') at the   15 th omega  29.4737   0.0000 [eV]
       1       2       3       4       5       6       7       8       9
    1   2.187   0.228  -0.034  -0.341  -0.539  -0.082  -0.539  -0.061   0.171
       -0.229   0.185   0.043   0.106   0.279   0.090  -0.075  -0.106  -0.034

    2   0.046  14.690   0.025  -1.438  -0.615   2.379   1.593  -1.000  -0.559
       -0.290  -4.170  -0.040   3.957  -1.609  -0.170   0.054  -2.011   0.690

 No. of calculated frequencies >  15, stop printing
  Average fulfillment of the sum rule on Im[epsilon] for q-point    6 :     30.72  [%]


--------------------------------------------------------------------------------
  q-point number  7        q = ( 0.500000, 0.000000, 0.333333) [r.l.u.]
--------------------------------------------------------------------------------
  chi0(G,G') at the    1 th omega   0.0000   0.0000 [eV]
       1       2       3       4       5       6       7       8       9
    1 -12.276  -0.233   0.450   1.402   2.289   0.788   2.289   0.788  -0.721
       -0.000  -0.403  -0.780  -0.000  -0.728  -0.742   0.728   0.742   0.000

    2  -0.233 -23.827  -0.267   3.752   1.945  -5.376  -3.906   2.656   0.894
        0.403  -0.000  -0.462  -6.498   3.387   0.037   0.009   4.674  -1.549

  chi0(G,G') at the    2 th omega   2.1053   0.0000 [eV]
       1       2       3       4       5       6       7       8       9
    1 -12.603  -0.233   0.467   1.428   2.354   0.816   2.340   0.804  -0.742
       -0.099  -0.408  -0.795   0.009  -0.735  -0.756   0.771   0.769  -0.006

    2  -0.237 -24.337  -0.271   3.874   1.965  -5.504  -3.990   2.692   0.930
        0.406  -0.169  -0.478  -6.605   3.473  -0.011  -0.021   4.804  -1.581

  chi0(G,G') at the    3 th omega   4.2105   0.0000 [eV]
       1       2       3       4       5       6       7       8       9
    1 -13.741  -0.238   0.501   1.511   2.563   0.894   2.543   0.878  -0.819
       -0.133  -0.417  -0.852   0.011  -0.821  -0.822   0.869   0.839  -0.009

    2  -0.242 -26.073  -0.297   4.146   2.110  -5.944  -4.278   2.928   1.012
        0.415  -0.215  -0.528  -7.050   3.723  -0.052  -0.037   5.179  -1.716

  chi0(G,G') at the    4 th omega   6.3158   0.0000 [eV]
       1       2       3       4       5       6       7       8       9
    1 -16.521  -0.231   0.554   1.679   3.126   1.037   3.049   1.043  -1.034
       -0.276  -0.400  -0.958   0.025  -1.052  -0.982   1.176   0.977  -0.020

    2  -0.231 -30.080  -0.369   4.801   2.466  -6.965  -4.973   3.493   1.190
        0.400  -0.407  -0.663  -8.065   4.330  -0.204  -0.105   6.054  -2.022

  chi0(G,G') at the    5 th omega   8.4211   0.0000 [eV]
       1       2       3       4       5       6       7       8       9
    1 -23.925  -0.621   0.593   2.102   4.949   1.974   3.669   1.316  -1.509
       -3.555   0.110  -1.239  -0.310  -0.731  -1.355   2.839   1.364  -0.538

    2   0.406 -39.537  -0.136   6.952   2.604  -9.477  -6.260   4.455   2.032
        0.483  -3.365  -1.203  -9.712   5.820  -0.963  -1.231   8.929  -2.751

  chi0(G,G') at the    6 th omega  10.5263   0.0000 [eV]
       1       2       3       4       5       6       7       8       9
    1 -21.076  -2.276   3.370   5.430   4.644   1.756   0.668   0.909   0.154
      -22.334  -2.860  -2.861   0.775   3.770   1.607   2.805   3.044  -0.981

    2  -1.339 -44.776   1.525  11.689  -0.242  -8.682  -5.042   0.737   3.530
        3.402 -24.606  -0.191  -9.798   7.243  -8.372  -3.173  15.381  -1.998

  chi0(G,G') at the    7 th omega  12.6316   0.0000 [eV]
       1       2       3       4       5       6       7       8       9
    1  -7.076   1.521   3.052   1.666   2.344   3.394   3.593  -4.313  -0.282
      -23.453  -3.719   1.604   2.675   4.244  -1.796   4.546   4.072  -1.179

    2  -3.981 -30.013  -1.423  17.976  -3.422  -3.948  -7.969  -8.752   4.556
        0.542 -43.743  -1.330  -4.751  10.321  -7.653  -6.605   8.857   0.538

  chi0(G,G') at the    8 th omega  14.7368   0.0000 [eV]
       1       2       3       4       5       6       7       8       9
    1  -4.916   3.461   2.152  -0.818   1.640   2.448   1.535  -2.673   0.535
      -25.339  -0.878   1.685   2.018   2.863   1.203   5.273   1.285  -1.828

    2  -2.490 -20.412  -0.189  14.040  -2.070  -3.207  -4.781  -5.394   3.682
       -2.558 -39.032  -1.667   1.256   5.536  -8.988  -7.458   7.021   1.274

  chi0(G,G') at the    9 th omega  16.8421   0.0000 [eV]
       1       2       3       4       5       6       7       8       9
    1   4.514  -0.431   0.008   1.587   3.018   1.557  -3.893  -1.842   0.214
      -23.211  -0.036   1.244   1.505   3.902   3.913   5.535  -0.977  -1.349

    2   0.184 -11.979   2.875  16.143  -5.360  -3.275  -2.379 -13.487   3.279
        0.391 -45.393   0.582   3.345   6.481  -9.770 -10.300   7.895   5.539

  chi0(G,G') at the   10 th omega  18.9474   0.0000 [eV]
       1       2       3       4       5       6       7       8       9
    1  10.992   1.097  -0.135   0.932  -0.804  -2.497  -3.620  -0.927   0.364
      -15.290   0.687   1.553   3.530   5.388   1.757   1.471  -0.593  -0.377

    2   0.046  13.820   2.756  10.333 -10.575   4.104   4.209 -11.900  -0.706
       -1.293 -43.490   0.813  10.565   1.262 -10.147  -6.564  -1.451   3.972

  chi0(G,G') at the   11 th omega  21.0526   0.0000 [eV]
       1       2       3       4       5       6       7       8       9
    1  13.063  -0.311   0.092  -1.454  -2.462  -0.376  -2.231   0.192   0.606
      -10.398   0.515   0.583   2.380   3.484   1.368   0.063   0.390  -0.584

    2   0.602  23.647   0.382   4.230  -6.654   4.922   4.361  -8.607  -0.965
        0.012 -30.487   1.374  11.200  -3.792  -4.846  -4.669  -5.107   0.924

  chi0(G,G') at the   12 th omega  23.1579   0.0000 [eV]
       1       2       3       4       5       6       7       8       9
    1  10.680  -0.340  -0.312  -1.683  -1.919  -1.097  -1.020  -1.184   0.440
       -3.973  -0.105   0.375   1.166   1.625   0.131   0.032  -0.195  -0.459

    2   0.079  19.018   0.708   2.406  -3.022   3.266   2.110  -4.378   0.161
        0.347 -17.993  -0.149   6.075  -0.644  -3.414  -1.165  -4.326   0.866

  chi0(G,G') at the   13 th omega  25.2632   0.0000 [eV]
       1       2       3       4       5       6       7       8       9
    1   7.821   0.424  -0.043  -1.146  -1.394  -0.290  -1.564  -0.813   0.440
[...]
       -6.673  -1.940   0.146  -0.694  -0.594   0.660   1.776   2.622   1.834

    2  -1.109  17.639  -0.398   2.182  -3.155   8.171   7.309 -12.968   1.212
        1.960 -40.820  -1.210   9.156  -4.579 -13.698  -5.248   2.846   8.441

  chi0(G,G') at the   11 th omega  21.0526   0.0000 [eV]
       1       2       3       4       5       6       7       8       9
    1   6.248   0.255   0.345   1.056  -0.422  -0.147  -1.005  -0.928  -2.326
       -4.034  -0.514  -0.080  -0.183  -0.634   1.310   0.509   1.153   1.467

    2  -0.573  21.025   0.225  -1.025  -4.292  10.356   3.023  -9.715   0.539
        0.036 -28.080  -0.103   5.540  -1.647  -7.469   0.990  -3.529   6.507

  chi0(G,G') at the   12 th omega  23.1579   0.0000 [eV]
       1       2       3       4       5       6       7       8       9
    1   5.075   0.338   0.057   0.625  -0.302  -1.001  -0.637  -0.480  -1.932
       -1.362   0.014   0.085  -0.147  -0.099   0.428   0.317   0.664   0.695

    2  -0.157  20.492  -0.487  -1.161  -0.874   5.869   2.493  -5.709   1.270
       -0.299 -18.091   0.408   3.573   0.486  -2.380  -2.487  -2.249   3.122

  chi0(G,G') at the   13 th omega  25.2632   0.0000 [eV]
       1       2       3       4       5       6       7       8       9
    1   3.557  -0.558   0.040   0.251  -0.413  -0.676  -0.133  -0.599  -0.844
       -0.675   0.033   0.012  -0.003  -0.320  -0.113   0.006   0.377   0.244

    2   0.308  15.706  -0.021  -1.150  -2.593   4.840   2.009  -5.062   1.223
        0.467 -12.754  -0.084   2.032  -1.346  -3.160  -1.035  -2.402   3.496

  chi0(G,G') at the   14 th omega  27.3684   0.0000 [eV]
       1       2       3       4       5       6       7       8       9
    1   2.750  -0.369  -0.025   0.286  -0.113  -0.343  -0.190  -0.438  -0.863
       -0.319  -0.266   0.052   0.043  -0.135  -0.025   0.086   0.317   0.149

    2  -0.045  16.076   0.002  -0.672  -1.533   4.627   2.303  -4.698  -0.539
        0.453  -9.466   0.017   2.456  -2.176  -1.599  -0.066  -3.573   3.909

  chi0(G,G') at the   15 th omega  29.4737   0.0000 [eV]
       1       2       3       4       5       6       7       8       9
    1   2.139  -0.332   0.009   0.144  -0.064  -0.330  -0.139  -0.333  -0.551
       -0.230  -0.295   0.010  -0.013  -0.115  -0.018   0.102   0.188   0.224

    2  -0.090  14.697  -0.001  -0.855  -0.491   3.517   1.143  -2.364  -0.809
        0.435  -4.001  -0.013   1.256  -1.085  -0.230   0.207  -2.827   1.401

 No. of calculated frequencies >  15, stop printing
  Average fulfillment of the sum rule on Im[epsilon] for q-point    8 :     30.70  [%]


--------------------------------------------------------------------------------
  q-point number  9        q = ( 0.250000, 0.250000, 0.333333) [r.l.u.]
--------------------------------------------------------------------------------
  chi0(G,G') at the    1 th omega   0.0000   0.0000 [eV]
       1       2       3       4       5       6       7       8       9
    1 -10.491  -1.263  -0.049   1.299   1.644  -0.310   2.062   1.268  -0.179
       -0.000  -0.073  -0.568  -0.381  -0.755  -0.458   0.364   0.793   0.434

    2  -1.263 -23.290   0.287   3.456   1.727  -3.878  -3.921   2.989   1.033
        0.073  -0.000  -0.327  -6.370   3.155  -0.012   0.031   5.553  -2.134

  chi0(G,G') at the    2 th omega   2.1053   0.0000 [eV]
       1       2       3       4       5       6       7       8       9
    1 -10.780  -1.301  -0.047   1.328   1.695  -0.314   2.107   1.297  -0.188
       -0.086  -0.082  -0.582  -0.386  -0.766  -0.475   0.392   0.830   0.444

    2  -1.301 -23.783   0.302   3.575   1.745  -3.982  -4.005   3.022   1.077
        0.060  -0.164  -0.333  -6.474   3.238  -0.046   0.003   5.690  -2.179

  chi0(G,G') at the    3 th omega   4.2105   0.0000 [eV]
       1       2       3       4       5       6       7       8       9
    1 -11.790  -1.433  -0.056   1.416   1.853  -0.343   2.273   1.424  -0.211
       -0.117  -0.075  -0.627  -0.433  -0.848  -0.524   0.444   0.927   0.485

    2  -1.432 -25.457   0.350   3.842   1.879  -4.342  -4.289   3.262   1.172
        0.045  -0.209  -0.362  -6.903   3.481  -0.069  -0.004   6.082  -2.362

  chi0(G,G') at the    4 th omega   6.3158   0.0000 [eV]
       1       2       3       4       5       6       7       8       9
    1 -14.299  -1.784  -0.071   1.600   2.272  -0.441   2.685   1.741  -0.291
       -0.260  -0.035  -0.692  -0.561  -1.068  -0.661   0.622   1.181   0.574

    2  -1.754 -29.346   0.508   4.500   2.208  -5.216  -4.991   3.816   1.405
       -0.020  -0.420  -0.396  -7.877   4.082  -0.173  -0.040   7.007  -2.802

  chi0(G,G') at the    5 th omega   8.4211   0.0000 [eV]
       1       2       3       4       5       6       7       8       9
    1 -21.058  -2.616  -0.470   2.222   3.656  -0.067   3.113   2.273  -0.484
       -3.291  -0.180  -0.920  -0.977  -1.173  -1.105   1.449   2.425   0.460

    2  -2.419 -38.107   0.984   6.781   2.248  -7.455  -6.160   4.489   2.451
       -0.814  -3.417  -0.015  -9.421   5.287  -0.969  -0.710   9.359  -3.529

  chi0(G,G') at the    6 th omega  10.5263   0.0000 [eV]
       1       2       3       4       5       6       7       8       9
    1 -16.779  -2.921   1.867   4.650   2.975   0.070   2.218   0.031   1.145
      -19.931  -4.807  -2.994   1.473   3.462  -0.984   0.714   2.951   1.422

    2  -0.910 -43.124   0.055  11.331  -0.625  -6.857  -7.055   3.028   4.697
       -0.730 -23.304   1.153  -7.972   7.322  -7.503  -3.727  15.529  -2.592

  chi0(G,G') at the    7 th omega  12.6316   0.0000 [eV]
       1       2       3       4       5       6       7       8       9
    1  -4.824  -0.768   3.539   1.402   1.682   2.209   3.997  -2.147  -1.403
      -19.219  -2.903  -0.793   1.597   2.011  -2.143   3.861   4.021   0.048

    2  -2.742 -32.365  -0.587  15.547  -3.492  -1.690  -6.388  -9.124   7.193
       -1.607 -41.080  -0.750  -6.124   8.724  -5.422  -7.605  15.008  -0.872

  chi0(G,G') at the    8 th omega  14.7368   0.0000 [eV]
       1       2       3       4       5       6       7       8       9
    1  -3.154   1.566   1.970  -0.323   1.810   1.528   0.609  -0.561  -1.723
      -19.999  -2.311   0.697   2.160   1.995  -0.299   3.681   3.453  -0.412

    2  -0.400 -21.473   1.005  14.250  -3.297  -3.816  -3.163  -8.374   7.353
       -3.747 -38.856  -0.998   0.531   5.317  -6.428  -6.002   9.325   2.270

  chi0(G,G') at the    9 th omega  16.8421   0.0000 [eV]
       1       2       3       4       5       6       7       8       9
    1   4.927   0.592  -0.413   3.955   2.768   0.379  -1.882  -3.708   0.204
      -19.443  -3.309   1.527   1.599   3.669   0.699   4.426  -1.404  -1.219

    2   1.031 -12.674   2.515  15.741  -7.666   0.078  -2.716 -13.926   5.559
       -1.547 -47.065  -0.371   2.316   5.061  -9.066 -11.427  11.653   7.858

  chi0(G,G') at the   10 th omega  18.9474   0.0000 [eV]
       1       2       3       4       5       6       7       8       9
    1   9.385   2.639   0.965  -0.024  -1.436  -0.637  -1.536  -0.011  -0.806
      -12.914  -0.151   0.990   4.876   4.606  -0.210   2.999  -1.064  -0.698

    2   2.321  13.796   1.222   9.876  -9.990   5.112   5.974 -15.766  -2.131
       -1.204 -42.860   1.074  10.081  -1.801  -4.404  -6.003   1.252   3.301

  chi0(G,G') at the   11 th omega  21.0526   0.0000 [eV]
       1       2       3       4       5       6       7       8       9
    1  10.988   0.638  -0.405  -1.709  -1.992   0.804  -2.827   0.260   0.296
       -8.141   0.104   0.298   2.627   2.193  -0.107   1.136   0.880  -0.704

    2   1.074  21.626  -0.636   5.038  -3.914   3.671   4.697 -12.527  -0.722
        0.249 -31.127   1.079  11.214  -2.830  -1.805  -6.018  -5.345   2.394

  chi0(G,G') at the   12 th omega  23.1579   0.0000 [eV]
       1       2       3       4       5       6       7       8       9
    1   9.129  -0.227  -0.193  -1.597  -1.148  -0.039  -2.201  -1.271  -0.076
       -2.958   0.392   0.299   0.835   1.234  -0.452   0.465   0.524  -0.469

    2   0.360  20.770  -0.291   2.691  -3.555   2.640   2.402  -5.834   0.718
       -0.070 -17.493  -0.463   6.686  -1.030  -1.200  -2.372  -4.363   0.586

  chi0(G,G') at the   13 th omega  25.2632   0.0000 [eV]
       1       2       3       4       5       6       7       8       9
    1   6.469   0.703   0.154  -1.030  -0.856   0.348  -1.274  -1.334   0.087
       -1.501  -0.755   0.252   0.634   0.429   0.044   0.444  -0.333  -0.408

    2   0.411  16.040   0.080   2.590  -2.570   2.561   2.464  -4.753   0.216
       -0.542 -13.148   0.007   6.625  -1.162  -0.638  -3.665  -3.356   1.916

  chi0(G,G') at the   14 th omega  27.3684   0.0000 [eV]
       1       2       3       4       5       6       7       8       9
    1   5.193   0.607  -0.041  -0.737  -0.826   0.231  -1.318  -0.632   0.300
       -0.776  -0.211   0.203   0.466   0.518   0.093   0.520  -0.059  -0.170

    2   0.479  15.948  -0.329   0.611  -1.559   2.234   3.402  -3.040  -0.434
       -0.170 -10.334  -0.039   7.670  -2.379  -0.481  -2.173  -3.796   1.450

  chi0(G,G') at the   15 th omega  29.4737   0.0000 [eV]
       1       2       3       4       5       6       7       8       9
    1   4.030   0.601   0.008  -0.629  -0.745   0.108  -1.021  -0.550   0.213
       -0.501  -0.059   0.084   0.336   0.376   0.057   0.186  -0.133  -0.079

    2   0.484  15.062  -0.056  -0.977  -1.077   1.399   2.240  -1.440  -0.504
       -0.253  -4.612  -0.020   5.086  -1.614   0.006  -0.745  -2.850   0.787

 No. of calculated frequencies >  15, stop printing
  Average fulfillment of the sum rule on Im[epsilon] for q-point    9 :     27.40  [%]

== END DATASET(S) ==============================================================
================================================================================
  
 -outvars: echo values of variables after computation  --------
            acell      9.2843000799E+00  9.2843000799E+00  1.0213270550E+01 Bohr
              amu      2.80855000E+01  1.59994000E+01
             ecut      2.39922335E+01 Hartree
          ecuteps      7.91303771E+00 Hartree
          ecutwfn      2.39922335E+01 Hartree
           etotal      0.0000000000E+00
            fcart      0.0000000000E+00  0.0000000000E+00  0.0000000000E+00
                       0.0000000000E+00  0.0000000000E+00  0.0000000000E+00
                       0.0000000000E+00  0.0000000000E+00  0.0000000000E+00
                       0.0000000000E+00  0.0000000000E+00  0.0000000000E+00
                       0.0000000000E+00  0.0000000000E+00  0.0000000000E+00
                       0.0000000000E+00  0.0000000000E+00  0.0000000000E+00
                       0.0000000000E+00  0.0000000000E+00  0.0000000000E+00
                       0.0000000000E+00  0.0000000000E+00  0.0000000000E+00
                       0.0000000000E+00  0.0000000000E+00  0.0000000000E+00
        freqremax      1.46997302E+00 Hartree
        gwcalctyp           2
           gwpara           2
          inclvkb           2
           irdkss           1
           istwfk        1    0    1    0    0    0    0    0    0
              kpt      0.00000000E+00  0.00000000E+00  0.00000000E+00
                       2.50000000E-01  0.00000000E+00  0.00000000E+00
                       5.00000000E-01  0.00000000E+00  0.00000000E+00
                       2.50000000E-01  2.50000000E-01  0.00000000E+00
                       0.00000000E+00  0.00000000E+00  3.33333333E-01
                       2.50000000E-01  0.00000000E+00  3.33333333E-01
                       5.00000000E-01  0.00000000E+00  3.33333333E-01
                      -2.50000000E-01  0.00000000E+00  3.33333333E-01
                       2.50000000E-01  2.50000000E-01  3.33333333E-01
          kptrlen      3.06398116E+01
         kptrlatt      4  0  0   0  4  0   0  0  3
P           mkmem           3
            natom           9
            nband          50
          nfreqim           5
          nfreqre          20
            ngfft          45      45      48
             nkpt           9
           npweps         811
           npwwfn        4301
           nsheps         142
            nstep         200
             nsym           6
           ntypat           2
              occ      2.000000  2.000000  2.000000  2.000000  2.000000  2.000000
                       2.000000  2.000000  2.000000  2.000000  2.000000  2.000000
                       2.000000  2.000000  2.000000  2.000000  2.000000  2.000000
                       2.000000  2.000000  2.000000  2.000000  2.000000  2.000000
                       0.000000  0.000000  0.000000  0.000000  0.000000  0.000000
                       0.000000  0.000000  0.000000  0.000000  0.000000  0.000000
                       0.000000  0.000000  0.000000  0.000000  0.000000  0.000000
                       0.000000  0.000000  0.000000  0.000000  0.000000  0.000000
                       0.000000  0.000000
        optdriver           3
            rprim      5.0000000000E-01 -8.6602540378E-01  0.0000000000E+00
                       5.0000000000E-01  8.6602540378E-01  0.0000000000E+00
                       0.0000000000E+00  0.0000000000E+00  1.0000000000E+00
          spgroup         154
           spmeth           1
           strten      0.0000000000E+00  0.0000000000E+00  0.0000000000E+00
                       0.0000000000E+00  0.0000000000E+00  0.0000000000E+00
           symrel      1  0  0   0  1  0   0  0  1       1  0  0  -1 -1  0   0  0 -1
                       0  1  0  -1 -1  0   0  0  1       0  1  0   1  0  0   0  0 -1
                      -1 -1  0   1  0  0   0  0  1      -1 -1  0   0  1  0   0  0 -1
           symchi        1
            tnons      0.0000000  0.0000000  0.0000000     0.0000000  0.0000000  0.0000000
                       0.0000000  0.0000000 -0.3333333     0.0000000  0.0000000 -0.3333333
                       0.0000000  0.0000000  0.3333333     0.0000000  0.0000000  0.3333333
            typat      1  1  1  2  2  2  2  2  2
              wtk        0.02083    0.12500    0.06250    0.12500    0.04167    0.12500
                         0.12500    0.12500    0.25000
           xangst      1.1422818000E+00 -1.9784901142E+00  0.0000000000E+00
                       1.1422818000E+00  1.9784901142E+00  3.6030866667E+00
                      -2.2845636000E+00  0.0000000000E+00  1.8015433333E+00
                       1.6876292400E+00 -6.0843889532E-01  6.4855560000E-01
                      -1.3707381600E+00 -1.1573103463E+00  2.4500989333E+00
                      -3.1689108000E-01  1.7657492417E+00  4.2516422667E+00
                      -3.1689108000E-01 -1.7657492417E+00 -6.4855560000E-01
                       1.6876292400E+00  6.0843889532E-01  2.9545310667E+00
                      -1.3707381600E+00  1.1573103463E+00  1.1529877333E+00
            xcart      2.1585997686E+00 -3.7388044724E+00  0.0000000000E+00
                       2.1585997686E+00  3.7388044724E+00  6.8088470331E+00
                      -4.3171995372E+00  0.0000000000E+00  3.4044235165E+00
                       3.1891570774E+00 -1.1497828807E+00  1.2255924659E+00
                      -2.5903197223E+00 -2.1869996053E+00  4.6300159825E+00
                      -5.9883735515E-01  3.3367824861E+00  8.0344394990E+00
                      -5.9883735515E-01 -3.3367824861E+00 -1.2255924659E+00
                       3.1891570774E+00  1.1497828807E+00  5.5832545671E+00
                      -2.5903197223E+00  2.1869996053E+00  2.1788310506E+00
             xred      4.6500000000E-01  0.0000000000E+00  0.0000000000E+00
                       0.0000000000E+00  4.6500000000E-01  6.6666666667E-01
                      -4.6500000000E-01 -4.6500000000E-01  3.3333333333E-01
                       4.1500000000E-01  2.7200000000E-01  1.2000000000E-01
                      -1.4300000000E-01 -4.1500000000E-01  4.5333333333E-01
                      -2.7200000000E-01  1.4300000000E-01  7.8666666667E-01
                       1.4300000000E-01 -2.7200000000E-01 -1.2000000000E-01
                       2.7200000000E-01  4.1500000000E-01  5.4666666667E-01
                      -4.1500000000E-01 -1.4300000000E-01  2.1333333333E-01
            znucl       14.00000    8.00000

================================================================================


- Timing analysis has been suppressed with timopt=0



================================================================================

 Suggested references for the acknowledgment of ABINIT usage.

 The users of ABINIT have little formal obligations with respect to the ABINIT group
 (those specified in the GNU General Public License, http://www.gnu.org/copyleft/gpl.txt).
 However, it is common practice in the scientific literature,
 to acknowledge the efforts of people that have made the research possible.
 In this spirit, please find below suggested citations of work written by ABINIT developers,
 corresponding to implementations inside of ABINIT that you have used in the present run.
 Note also that it will be of great value to readers of publications presenting these results,
 to read papers enabling them to understand the theoretical formalism and details
 of the ABINIT implementation.
 For information on why they are suggested, see also http://www.abinit.org/about/?text=acknowledgments.

 [1] ABINIT : First-principles approach of materials and nanosystem properties.
 X. Gonze, B. Amadon, P.-M. Anglade, J.-M. Beuken, F. Bottin, P. Boulanger, F. Bruneval,
 D. Caliste, R. Caracas, M. Cote, T. Deutsch, L. Genovese, Ph. Ghosez, M. Giantomassi
 S. Goedecker, D.R. Hamann, P. Hermet, F. Jollet, G. Jomard, S. Leroux, M. Mancini, S. Mazevet,
 M.J.T. Oliveira, G. Onida, Y. Pouillon, T. Rangel, G.-M. Rignanese, D. Sangalli, R. Shaltaf,
 M. Torrent, M.J. Verstraete, G. Zerah, J.W. Zwanziger
 Computer Phys. Comm. 180, 2582-2615 (2009).
 Comment : the third generic paper describing the ABINIT project.
 Note that a version of this paper, that is not formatted for Computer Phys. Comm. 
 is available at http://www.abinit.org/about/ABINIT_CPC_v10.pdf .
 The licence allows the authors to put it on the Web.

 [2] A brief introduction to the ABINIT software package.
 X. Gonze, G.-M. Rignanese, M. Verstraete, J.-M. Beuken, Y. Pouillon, R. Caracas, F. Jollet,
 M. Torrent, G. Zerah, M. Mikami, Ph. Ghosez, M. Veithen, J.-Y. Raty, V. Olevano, F. Bruneval,
 L. Reining, R. Godby, G. Onida, D.R. Hamann, and D.C. Allan.
 Z. Kristallogr. 220, 558-562 (2005).
 Comment : the second generic paper describing the ABINIT project. Note that this paper
 should be cited especially if you are using the GW part of ABINIT, as several authors
 of this part are not in the list of authors of the first or third paper.
 The .pdf of the latter paper is available at http://www.abinit.org/about/zfk_0505-06_558-562.pdf.
 Note that it should not redistributed (Copyright by Oldenburg Wissenshaftverlag,
 the licence allows the authors to put it on the Web).


 And optionally :

 [3] First-principles computation of material properties : the ABINIT software project. 
 X. Gonze, J.-M. Beuken, R. Caracas, F. Detraux, M. Fuchs, G.-M. Rignanese, L. Sindic,
 M. Verstraete, G. Zerah, F. Jollet, M. Torrent, A. Roy, M. Mikami, Ph. Ghosez, J.-Y. Raty, D.C. Allan.
 Computational Materials Science 25, 478-492 (2002). http://dx.doi.org/10.1016/S0927-0256(02)00325-7
 Comment : the original paper describing the ABINIT project.

 [4] Fast radix 2, 3, 4 and 5 kernels for Fast Fourier Transformations
 on computers with overlapping multiply-add instructions.
 S. Goedecker, SIAM J. on Scientific Computing 18, 1605 (1997).
-
- Proc.   0 individual time (sec): cpu=        959.1  wall=        959.1

================================================================================

 Calculation completed.
.Delivered    4 WARNINGs and   5 COMMENTs to log file.
+Overall time at end (sec) : cpu=       3842.0  wall=       3842.0
