
.Version 6.10.2 of ABINIT 
.(MPI version, prepared for a x86_64_linux_gnu4.4 computer) 

.Copyright (C) 1998-2014 ABINIT group . 
 ABINIT comes with ABSOLUTELY NO WARRANTY.
 It is free software, and you are welcome to redistribute it
 under certain conditions (GNU General Public License,
 see ~abinit/COPYING or http://www.gnu.org/copyleft/gpl.txt).

 ABINIT is a project of the Universite Catholique de Louvain,
 Corning Inc. and other collaborators, see ~abinit/doc/developers/contributors.txt .
 Please read ~abinit/doc/users/acknowledgments.html for suggested
 acknowledgments of the ABINIT effort.
 For more information, see http://www.abinit.org .

.Starting date : Thu 10 Nov 2011.
- ( at  3h54 )
  
- input  file    -> ../tmbt_2.in
- output file    -> tmbt_2.outD
- root for input  files -> tmbt_2i
- root for output files -> tmbt_2o


 Symmetries : space group P3_2 2 1 (#154); Bravais hP (primitive hexag.)
================================================================================
 Values of the parameters that define the memory need of the present run
   intxc =         0  ionmov =         0    iscf =         7 xclevel =         1
  lmnmax =         2   lnmax =         2   mband =        50  mffmem =         1
P  mgfft =        48   mkmem =         3 mpssoang=         3     mpw =      4304
  mqgrid =      3001   natom =         9    nfft =     97200    nkpt =         9
  nloalg =         4  nspden =         1 nspinor =         1  nsppol =         1
    nsym =         6  n1xccc =      2501  ntypat =         2  occopt =         1
================================================================================
P This job should need less than                      39.239 Mbytes of memory.
  Rough estimation (10% accuracy) of disk space for files :
  WF disk file :     29.555 Mbytes ; DEN or POT disk file :      0.744 Mbytes.
================================================================================

--------------------------------------------------------------------------------
------------- Echo of variables that govern the present computation ------------
--------------------------------------------------------------------------------
-
- outvars: echo of selected default values                                      
-   accesswff0 =  0 , fftalg0 =112 , wfoptalg0 =  0
-
- outvars: echo of global parameters not present in the input file              
-   nproc =    4
-
 -outvars: echo values of preprocessed input variables --------
            acell      9.2843000799E+00  9.2843000799E+00  1.0213270550E+01 Bohr
              amu      2.80855000E+01  1.59994000E+01
             ecut      2.39922335E+01 Hartree
          ecuteps      7.91303771E+00 Hartree
          ecutwfn      2.39922335E+01 Hartree
           gwpara           2
          inclvkb           2
           irdkss           1
           istwfk        1    0    1    0    0    0    0    0    0
              kpt      0.00000000E+00  0.00000000E+00  0.00000000E+00
                       2.50000000E-01  0.00000000E+00  0.00000000E+00
                       5.00000000E-01  0.00000000E+00  0.00000000E+00
                       2.50000000E-01  2.50000000E-01  0.00000000E+00
                       0.00000000E+00  0.00000000E+00  3.33333333E-01
                       2.50000000E-01  0.00000000E+00  3.33333333E-01
                       5.00000000E-01  0.00000000E+00  3.33333333E-01
                      -2.50000000E-01  0.00000000E+00  3.33333333E-01
                       2.50000000E-01  2.50000000E-01  3.33333333E-01
          kptrlen      3.06398116E+01
         kptrlatt      4  0  0   0  4  0   0  0  3
P           mkmem           3
            natom           9
            nband          50
            ngfft          45      45      48
             nkpt           9
           npweps         811
           npwwfn        4301
           nsheps         142
            nstep         200
             nsym           6
           ntypat           2
              occ      2.000000  2.000000  2.000000  2.000000  2.000000  2.000000
                       2.000000  2.000000  2.000000  2.000000  2.000000  2.000000
                       2.000000  2.000000  2.000000  2.000000  2.000000  2.000000
                       2.000000  2.000000  2.000000  2.000000  2.000000  2.000000
                       0.000000  0.000000  0.000000  0.000000  0.000000  0.000000
                       0.000000  0.000000  0.000000  0.000000  0.000000  0.000000
                       0.000000  0.000000  0.000000  0.000000  0.000000  0.000000
                       0.000000  0.000000  0.000000  0.000000  0.000000  0.000000
                       0.000000  0.000000
        optdriver           3
            rprim      5.0000000000E-01 -8.6602540378E-01  0.0000000000E+00
                       5.0000000000E-01  8.6602540378E-01  0.0000000000E+00
                       0.0000000000E+00  0.0000000000E+00  1.0000000000E+00
          spgroup         154
           symrel      1  0  0   0  1  0   0  0  1       1  0  0  -1 -1  0   0  0 -1
                       0  1  0  -1 -1  0   0  0  1       0  1  0   1  0  0   0  0 -1
                      -1 -1  0   1  0  0   0  0  1      -1 -1  0   0  1  0   0  0 -1
           symchi        1
            tnons      0.0000000  0.0000000  0.0000000     0.0000000  0.0000000  0.0000000
                       0.0000000  0.0000000 -0.3333333     0.0000000  0.0000000 -0.3333333
                       0.0000000  0.0000000  0.3333333     0.0000000  0.0000000  0.3333333
            typat      1  1  1  2  2  2  2  2  2
              wtk        0.02083    0.12500    0.06250    0.12500    0.04167    0.12500
                         0.12500    0.12500    0.25000
           xangst      1.1422818000E+00 -1.9784901142E+00  0.0000000000E+00
                       1.1422818000E+00  1.9784901142E+00  3.6030866667E+00
                      -2.2845636000E+00  0.0000000000E+00  1.8015433333E+00
                       1.6876292400E+00 -6.0843889532E-01  6.4855560000E-01
                      -1.3707381600E+00 -1.1573103463E+00  2.4500989333E+00
                      -3.1689108000E-01  1.7657492417E+00  4.2516422667E+00
                      -3.1689108000E-01 -1.7657492417E+00 -6.4855560000E-01
                       1.6876292400E+00  6.0843889532E-01  2.9545310667E+00
                      -1.3707381600E+00  1.1573103463E+00  1.1529877333E+00
            xcart      2.1585997686E+00 -3.7388044724E+00  0.0000000000E+00
                       2.1585997686E+00  3.7388044724E+00  6.8088470331E+00
                      -4.3171995372E+00  0.0000000000E+00  3.4044235165E+00
                       3.1891570774E+00 -1.1497828807E+00  1.2255924659E+00
                      -2.5903197223E+00 -2.1869996053E+00  4.6300159825E+00
                      -5.9883735515E-01  3.3367824861E+00  8.0344394990E+00
                      -5.9883735515E-01 -3.3367824861E+00 -1.2255924659E+00
                       3.1891570774E+00  1.1497828807E+00  5.5832545671E+00
                      -2.5903197223E+00  2.1869996053E+00  2.1788310506E+00
             xred      4.6500000000E-01  0.0000000000E+00  0.0000000000E+00
                       0.0000000000E+00  4.6500000000E-01  6.6666666667E-01
                      -4.6500000000E-01 -4.6500000000E-01  3.3333333333E-01
                       4.1500000000E-01  2.7200000000E-01  1.2000000000E-01
                      -1.4300000000E-01 -4.1500000000E-01  4.5333333333E-01
                      -2.7200000000E-01  1.4300000000E-01  7.8666666667E-01
                       1.4300000000E-01 -2.7200000000E-01 -1.2000000000E-01
                       2.7200000000E-01  4.1500000000E-01  5.4666666667E-01
                      -4.1500000000E-01 -1.4300000000E-01  2.1333333333E-01
            znucl       14.00000    8.00000

================================================================================

 chkinp: Checking input parameters for consistency.

================================================================================
== DATASET  1 ==================================================================

 Exchange-correlation functional for the present dataset will be:
  LDA: new Teter (4/93) with spin-polarized option - ixc=1
 Citation for XC functional:
  S. Goedecker, M. Teter, J. Huetter, PRB 54, 1703 (1996)

 SCREENING: Calculation of the susceptibility and dielectric matrices

 Based on a program developped by R.W. Godby, V. Olevano, G. Onida, and L. Reining.
 Incorporated in ABINIT by V. Olevano, G.-M. Rignanese, and M. Torrent.
.Using double precision arithmetic ; gwpc =  8

 Real(R)+Recip(G) space primitive vectors, cartesian coordinates (Bohr,Bohr^-1):
 R(1)=  4.6421500 -8.0404397  0.0000000  G(1)=  0.1077087 -0.0621857  0.0000000
 R(2)=  4.6421500  8.0404397  0.0000000  G(2)=  0.1077087  0.0621857  0.0000000
 R(3)=  0.0000000  0.0000000 10.2132705  G(3)=  0.0000000  0.0000000  0.0979118
 Unit cell volume ucvol=  7.6241917E+02 bohr^3
 Angles (23,13,12)=  9.00000000E+01  9.00000000E+01  1.20000000E+02 degrees

--- Pseudopotential description ------------------------------------------------
- pspini: atom type   1  psp file is ../../../Psps_for_tests/14si.pspnc
- pspatm: opening atomic psp file    ../../../Psps_for_tests/14si.pspnc
-  Troullier-Martins psp for element  Si        Thu Oct 27 17:31:21 EDT 1994
- 14.00000   4.00000    940714                znucl, zion, pspdat
    1    1    2    2      2001   0.00000      pspcod,pspxc,lmax,lloc,mmax,r2well
    0   5.907  14.692    1   2.0872718        l,e99.0,e99.9,nproj,rcpsp
   0.00000000   0.00000000   0.00000000   0.00000000     rms, ekb1, ekb2, epsatm
    1   2.617   4.181    1   2.0872718        l,e99.0,e99.9,nproj,rcpsp
   0.00000000   0.00000000   0.00000000   0.00000000     rms, ekb1, ekb2, epsatm
    2   0.000   0.000    0   2.0872718        l,e99.0,e99.9,nproj,rcpsp
   0.00000000   0.00000000   0.00000000   0.00000000     rms, ekb1, ekb2, epsatm
    1.80626423934776    0.22824404341771    1.17378968127746   rchrg,fchrg,qchrg
 pspatm: epsatm=    1.43386982
         --- l  ekb(1:nproj) -->
             0    3.287949
             1    1.849886
 pspatm: atomic psp has been read  and splines computed

- pspini: atom type   2  psp file is ../../../Psps_for_tests/8o.pspnc
- pspatm: opening atomic psp file    ../../../Psps_for_tests/8o.pspnc
-  Troullier-Martins psp for element  O         Thu Oct 27 17:29:57 EDT 1994
-  8.00000   6.00000    940714                znucl, zion, pspdat
    1    1    1    1      2001   0.00000      pspcod,pspxc,lmax,lloc,mmax,r2well
    0   5.480  16.893    1   1.4482335        l,e99.0,e99.9,nproj,rcpsp
   0.00000000   0.00000000   0.00000000   0.00000000     rms, ekb1, ekb2, epsatm
    1  20.911  28.075    0   1.4482335        l,e99.0,e99.9,nproj,rcpsp
   0.00000000   0.00000000   0.00000000   0.00000000     rms, ekb1, ekb2, epsatm
    0.56990156784787    3.95561236318184    0.63894027514378   rchrg,fchrg,qchrg
 pspatm: epsatm=    1.57752239
         --- l  ekb(1:nproj) -->
             0    5.670783
 pspatm: atomic psp has been read  and splines computed

   6.60803703E+02                                ecore*ucvol(ha*bohr**3)
--------------------------------------------------------------------------------

 ==== K-mesh for the wavefunctions ====
 Number of points in the irreducible wedge :     9
 Reduced coordinates and weights :

     1)     0.00000000E+00  0.00000000E+00  0.00000000E+00       0.02083
     2)     2.50000000E-01  0.00000000E+00  0.00000000E+00       0.12500
     3)     5.00000000E-01  0.00000000E+00  0.00000000E+00       0.06250
     4)     2.50000000E-01  2.50000000E-01  0.00000000E+00       0.12500
     5)     0.00000000E+00  0.00000000E+00  3.33333333E-01       0.04167
     6)     2.50000000E-01  0.00000000E+00  3.33333333E-01       0.12500
     7)     5.00000000E-01  0.00000000E+00  3.33333333E-01       0.12500
     8)    -2.50000000E-01  0.00000000E+00  3.33333333E-01       0.12500
     9)     2.50000000E-01  2.50000000E-01  3.33333333E-01       0.25000

 Together with  6 symmetry operations and time-reversal symmetry 
 yields    48 points in the full Brillouin Zone.


 ==== Q-mesh for the screening function ====
 Number of points in the irreducible wedge :     9
 Reduced coordinates and weights :

     1)     0.00000000E+00  0.00000000E+00  0.00000000E+00       0.02083
     2)     2.50000000E-01  0.00000000E+00  0.00000000E+00       0.12500
     3)     5.00000000E-01  0.00000000E+00  0.00000000E+00       0.06250
     4)     2.50000000E-01  2.50000000E-01  0.00000000E+00       0.12500
     5)     0.00000000E+00  0.00000000E+00  3.33333333E-01       0.04167
     6)     2.50000000E-01  0.00000000E+00  3.33333333E-01       0.12500
     7)     5.00000000E-01  0.00000000E+00  3.33333333E-01       0.12500
     8)    -2.50000000E-01  0.00000000E+00  3.33333333E-01       0.12500
     9)     2.50000000E-01  2.50000000E-01  3.33333333E-01       0.25000

 Together with  6 symmetry operations and time-reversal symmetry 
 yields    48 points in the full Brillouin Zone.


 setmesh: FFT mesh size selected  =  27x 27x 36
          total number of points  =    26244


 screening : taking advantage of time-reversal symmetry 
 Maximum band index for partially occupied states nbvw =    24
 Remaining bands to be divided among processors   nbcw =    26
 Number of bands treated by each node ~    6

 k       eigenvalues [eV]
  1        -17.51 -15.93 -15.93 -15.25 -15.21 -15.21  -6.52  -6.52  -3.73  -3.66
            -3.50  -3.50  -1.21  -1.21  -0.91  -0.74   0.24   0.24   0.34   0.78
             0.78   1.09   1.52   1.52   7.50  10.82  10.82  11.24  11.24  12.15
            13.35  13.66  14.17  14.17  14.88  14.88  15.72  16.41  16.41  16.47
            16.62  16.62  17.99  17.99  19.37  20.22  20.22  21.54  21.54  22.17

  2        -17.33 -16.14 -15.90 -15.30 -15.25 -15.22  -6.59  -6.13  -3.79  -3.75
            -3.63  -3.21  -1.41  -1.09  -0.87  -0.45  -0.29   0.19   0.27   0.69
             0.80   0.94   1.58   1.67   8.40  10.82  10.87  11.33  11.59  12.33
            12.67  13.46  13.84  14.03  14.49  14.95  15.39  15.95  16.44  16.52
            16.78  16.85  18.16  18.61  19.41  19.93  20.22  20.56  21.32  22.04

  3        -17.01 -16.51 -15.87 -15.32 -15.28 -15.24  -6.66  -5.64  -4.15  -3.71
            -3.70  -2.90  -1.36  -1.17  -0.97  -0.55  -0.32  -0.00   0.15   0.66
             0.72   1.02   1.52   1.78   9.81  10.51  11.22  11.24  12.06  12.09
            12.78  12.82  13.41  13.99  14.16  14.49  14.70  15.93  16.15  16.71
            16.75  17.27  17.96  18.47  19.73  20.65  20.67  21.12  21.14  22.03

  4        -17.02 -16.48 -15.90 -15.32 -15.27 -15.24  -6.68  -5.50  -4.42  -3.68
            -3.55  -2.89  -1.33  -1.15  -1.00  -0.42  -0.36   0.01   0.28   0.41
             0.70   1.16   1.51   1.78   9.66  10.94  10.96  11.63  11.75  12.19
            12.29  12.92  13.70  13.76  14.20  14.58  14.70  15.92  16.04  16.73
            17.01  17.20  18.44  19.02  19.03  20.23  20.30  20.84  21.66  21.71

  5        -17.29 -16.69 -15.35 -15.25 -15.23 -15.18  -7.48  -5.14  -4.10  -3.83
            -3.78  -3.03  -1.22  -0.92  -0.83  -0.41  -0.10   0.03   0.18   0.24
             0.66   1.37   1.65   1.75   8.51  10.26  10.70  10.87  11.81  11.91
            12.62  13.33  13.57  14.39  14.87  15.37  15.46  15.53  16.35  16.93
            16.94  17.21  17.51  18.97  19.02  19.29  21.06  22.15  22.34  22.40

  6        -17.14 -16.63 -15.59 -15.29 -15.27 -15.21  -7.08  -5.28  -4.38  -3.70
            -3.49  -3.16  -1.43  -1.05  -0.82  -0.51  -0.21   0.15   0.27   0.49
             0.80   1.14   1.54   1.64   9.19  10.52  10.79  11.06  11.92  12.00
            12.63  12.87  13.67  13.94  14.11  14.63  15.34  15.71  16.65  16.97
            17.16  17.32  18.25  18.72  18.95  19.63  20.06  21.00  21.81  21.96

  7        -16.95 -16.48 -15.98 -15.33 -15.27 -15.23  -6.55  -5.54  -4.56  -3.65
            -3.31  -3.18  -1.45  -1.41  -0.73  -0.51  -0.20   0.11   0.42   0.64
             0.78   1.13   1.21   1.66  10.25  10.67  11.09  11.52  11.98  12.06
            12.16  12.63  13.12  13.58  13.72  14.36  14.89  15.68  16.72  16.88
            17.20  17.60  18.34  18.46  18.91  20.03  20.47  20.82  21.42  21.80

  8        -17.14 -16.62 -15.62 -15.29 -15.24 -15.22  -7.08  -5.29  -4.38  -3.72
            -3.50  -3.11  -1.42  -1.03  -0.81  -0.59  -0.28   0.23   0.36   0.45
             0.83   1.08   1.44   1.75   9.14  10.72  10.86  11.15  11.63  11.89
            12.53  12.86  13.73  13.99  14.27  14.68  15.36  15.77  16.62  16.92
            17.01  17.36  17.71  18.78  19.06  19.97  20.30  21.00  21.65  21.91

  9        -16.95 -16.50 -15.95 -15.33 -15.29 -15.24  -6.54  -5.48  -4.68  -3.61
            -3.32  -3.18  -1.49  -1.24  -0.88  -0.45  -0.17   0.02   0.47   0.65
             0.87   1.03   1.34   1.55  10.10  10.89  11.12  11.58  11.72  12.05
            12.26  12.81  13.16  13.40  13.82  14.11  14.80  15.72  16.37  17.17
            17.52  17.97  18.28  18.83  19.23  19.48  19.85  20.70  21.54  22.08


 test on the normalization of the wavefunctions
 min sum_G |a(n,k,G)| =  0.999874
 max sum_G |a(n,k,G)| =  1.000000
 test on the orthogonalization of the wavefunctions (NB: this is not invariant for degenerate states)
- min sum_G a(n,k,G)a(n",k,G) =  0.000000
- max sum_G a(n,k,G)a(n",k,G) =  0.000042

 rdkss : COMMENT -
  Note that the test on the orthogonalization is not complete
  since bands are spread among different processors

 Number of electrons calculated from density =   47.9979; Expected =   48.0000
 average of density, n =  0.062955
 r_s =    1.5594
 omega_plasma =   24.2030 [eV]


 calculating chi0 at frequencies [eV] :
  1    0.000000E+00    0.000000E+00
  2    0.000000E+00    2.420303E+01


--------------------------------------------------------------------------------
  q-point number  1        q = ( 0.000000, 0.000000, 0.000000) [r.l.u.]
--------------------------------------------------------------------------------
  chi0(G,G') at the    1 th omega   0.0000   0.0000 [eV]
       1       2       3       4       5       6       7       8       9
    1  -0.000  -0.000   0.000   0.000   0.000  -0.000   0.000  -0.000  -0.000
       -0.000  -0.000  -0.000   0.000  -0.000   0.000   0.000  -0.000   0.000

    2  -0.000 -18.339   0.000   1.952   0.892  -3.904  -1.785   1.952   0.892
        0.000   0.000  -0.000  -3.381   1.545  -0.000  -0.000   3.381  -1.545

  chi0(G,G') at the    2 th omega   0.0000  24.2030 [eV]
       1       2       3       4       5       6       7       8       9
    1  -0.000  -0.000   0.000   0.000   0.000  -0.000   0.000  -0.000  -0.000
        0.000  -0.000  -0.000   0.000  -0.000   0.000   0.000  -0.000   0.000

    2  -0.000  -5.225   0.000   0.489   0.216  -0.979  -0.431   0.489   0.216
        0.000   0.000  -0.000  -0.848   0.374  -0.000  -0.000   0.848  -0.374

 For q-point:  0.000010 0.000020 0.000030
  dielectric constant =   2.3228
  dielectric constant without local fields =   2.4623

  Average fulfillment of the sum rule on Im[epsilon] for q-point    1 :     21.31  [%]
  Heads and wings of the symmetrical epsilon^-1(G,G')

   Upper and lower wings at the    1 th omega   0.0000   0.0000 [eV]
       1       2       3       4       5       6       7       8       9
      0.431  -0.010   0.010   0.009   0.001  -0.021   0.021  -0.001  -0.009
     -0.000  -0.003  -0.003   0.001  -0.001   0.000   0.000  -0.001   0.001
       1       2       3       4       5       6       7       8       9
      0.431  -0.010   0.010   0.009   0.001  -0.021   0.021  -0.001  -0.009
     -0.000   0.003   0.003  -0.001   0.001  -0.000  -0.000   0.001  -0.001


   Upper and lower wings at the    2 th omega   0.0000  24.2030 [eV]
       1       2       3       4       5       6       7       8       9
      0.755  -0.006   0.006   0.007   0.000  -0.015   0.015  -0.000  -0.007
     -0.000  -0.002  -0.002   0.000  -0.000   0.000   0.000  -0.000   0.000
       1       2       3       4       5       6       7       8       9
      0.755  -0.006   0.006   0.007   0.000  -0.015   0.015  -0.000  -0.007
     -0.000   0.002   0.002  -0.000   0.000  -0.000  -0.000   0.000  -0.000




--------------------------------------------------------------------------------
  q-point number  2        q = ( 0.250000, 0.000000, 0.000000) [r.l.u.]
--------------------------------------------------------------------------------
  chi0(G,G') at the    1 th omega   0.0000   0.0000 [eV]
       1       2       3       4       5       6       7       8       9
    1  -3.156  -0.148   0.399   0.969   0.825  -0.069   0.825  -0.069  -0.908
       -0.000  -0.256  -0.690  -0.000  -0.040   0.016   0.040  -0.016   0.000

    2  -0.148 -19.231  -0.102   2.798   1.195  -3.416  -2.460   1.518   0.399
        0.256  -0.000  -0.177  -4.846   2.150   0.219   0.040   3.068  -0.690

  chi0(G,G') at the    2 th omega   0.0000  24.2030 [eV]
       1       2       3       4       5       6       7       8       9
    1  -0.747  -0.035   0.083   0.274   0.213  -0.031   0.213  -0.031  -0.224
        0.000  -0.060  -0.143  -0.000  -0.007   0.004   0.007  -0.004   0.000

    2  -0.035  -5.518  -0.021   0.785   0.319  -0.810  -0.655   0.335   0.067
        0.060   0.000  -0.036  -1.360   0.573   0.081   0.011   0.742  -0.116

  Average fulfillment of the sum rule on Im[epsilon] for q-point    2 :     35.07  [%]


--------------------------------------------------------------------------------
  q-point number  3        q = ( 0.500000, 0.000000, 0.000000) [r.l.u.]
--------------------------------------------------------------------------------
  chi0(G,G') at the    1 th omega   0.0000   0.0000 [eV]
       1       2       3       4       5       6       7       8       9
    1 -10.360  -0.041   0.767   1.735   1.827   0.589   1.827   0.589  -1.295
        0.000  -0.071  -1.328  -0.000  -0.121   0.039   0.121  -0.039   0.000

    2  -0.041 -21.377  -0.313   3.332   1.494  -3.915  -3.090   1.792   0.031
        0.071   0.000  -0.542  -5.771   2.705   0.191   0.059   3.486  -0.053

  chi0(G,G') at the    2 th omega   0.0000  24.2030 [eV]
       1       2       3       4       5       6       7       8       9
    1  -2.639  -0.018   0.183   0.519   0.511   0.135   0.511   0.135  -0.312
        0.000  -0.031  -0.316  -0.000  -0.018   0.005   0.018  -0.005   0.000

    2  -0.018  -6.257  -0.069   1.007   0.449  -0.953  -0.917   0.394  -0.032
        0.031   0.000  -0.120  -1.745   0.799   0.095   0.011   0.873   0.055

  Average fulfillment of the sum rule on Im[epsilon] for q-point    3 :     28.34  [%]


--------------------------------------------------------------------------------
  q-point number  4        q = ( 0.250000, 0.250000, 0.000000) [r.l.u.]
--------------------------------------------------------------------------------
  chi0(G,G') at the    1 th omega   0.0000   0.0000 [eV]
       1       2       3       4       5       6       7       8       9
    1  -8.278  -0.923   0.373   1.580   1.235  -0.721   1.580   1.235  -0.721
        0.000   0.102  -0.851   0.075  -0.078   0.004   0.075  -0.078   0.004

    2  -0.923 -20.535   0.212   2.753   1.213  -1.750  -3.252   2.113   0.258
       -0.102   0.000  -0.367  -5.741   2.210  -0.004   0.120   4.794  -0.768

  chi0(G,G') at the    2 th omega   0.0000  24.2030 [eV]
       1       2       3       4       5       6       7       8       9
    1  -2.063  -0.222   0.095   0.459   0.309  -0.186   0.459   0.309  -0.186
       -0.000   0.019  -0.202   0.009  -0.012   0.001   0.009  -0.012   0.001

    2  -0.222  -6.015   0.051   0.810   0.330  -0.303  -0.931   0.541   0.034
       -0.019   0.000  -0.089  -1.699   0.615   0.020   0.013   1.322  -0.128

  Average fulfillment of the sum rule on Im[epsilon] for q-point    4 :     28.62  [%]


--------------------------------------------------------------------------------
  q-point number  5        q = ( 0.000000, 0.000000, 0.333333) [r.l.u.]
--------------------------------------------------------------------------------
  chi0(G,G') at the    1 th omega   0.0000   0.0000 [eV]
       1       2       3       4       5       6       7       8       9
    1  -3.470  -0.000   0.000   0.082   0.634   0.082   0.634   0.082   0.634
       -0.000  -0.000   0.000  -0.000  -0.000  -0.000  -0.000  -0.000   0.000

    2  -0.000 -22.421  -0.000   2.814   1.462  -5.629  -2.924   2.814   1.462
        0.000  -0.000   0.000  -4.875   2.533  -0.000  -0.000   4.875  -2.533

  chi0(G,G') at the    2 th omega   0.0000  24.2030 [eV]
       1       2       3       4       5       6       7       8       9
    1  -0.830  -0.000   0.000   0.026   0.162   0.026   0.162   0.026   0.162
       -0.000  -0.000  -0.000  -0.000  -0.000  -0.000  -0.000  -0.000   0.000

    2  -0.000  -6.946  -0.000   0.818   0.432  -1.635  -0.864   0.818   0.432
        0.000   0.000   0.000  -1.416   0.749  -0.000  -0.000   1.416  -0.749

  Average fulfillment of the sum rule on Im[epsilon] for q-point    5 :     35.30  [%]


--------------------------------------------------------------------------------
  q-point number  6        q = ( 0.250000, 0.000000, 0.333333) [r.l.u.]
--------------------------------------------------------------------------------
  chi0(G,G') at the    1 th omega   0.0000   0.0000 [eV]
       1       2       3       4       5       6       7       8       9
    1  -6.141  -0.264   0.205   0.780   1.379   0.121   1.379   0.121  -0.244
       -0.000  -0.458  -0.355  -0.000  -0.430  -0.496   0.430   0.496   0.000

    2  -0.264 -22.824  -0.075   3.399   1.712  -5.200  -3.424   2.548   1.149
        0.458  -0.000  -0.129  -5.887   2.965   0.060  -0.001   4.533  -1.990

  chi0(G,G') at the    2 th omega   0.0000  24.2030 [eV]
       1       2       3       4       5       6       7       8       9
    1  -1.507  -0.065   0.044   0.249   0.364   0.018   0.364   0.018  -0.069
       -0.000  -0.113  -0.076  -0.000  -0.095  -0.099   0.095   0.099   0.000

    2  -0.065  -7.079  -0.019   1.044   0.502  -1.470  -1.027   0.688   0.319
        0.113  -0.000  -0.033  -1.809   0.896   0.055   0.013   1.301  -0.553

  Average fulfillment of the sum rule on Im[epsilon] for q-point    6 :     30.72  [%]


--------------------------------------------------------------------------------
  q-point number  7        q = ( 0.500000, 0.000000, 0.333333) [r.l.u.]
--------------------------------------------------------------------------------
  chi0(G,G') at the    1 th omega   0.0000   0.0000 [eV]
       1       2       3       4       5       6       7       8       9
    1 -12.273  -0.233   0.450   1.402   2.288   0.788   2.288   0.788  -0.720
        0.000  -0.403  -0.780  -0.000  -0.728  -0.742   0.728   0.742   0.000

    2  -0.233 -23.822  -0.267   3.751   1.945  -5.375  -3.905   2.656   0.894
        0.403  -0.000  -0.462  -6.497   3.387   0.037   0.009   4.673  -1.548

  chi0(G,G') at the    2 th omega   0.0000  24.2030 [eV]
       1       2       3       4       5       6       7       8       9
    1  -3.219  -0.073   0.116   0.459   0.639   0.192   0.639   0.192  -0.184
       -0.000  -0.127  -0.201  -0.000  -0.166  -0.178   0.166   0.178   0.000

    2  -0.073  -7.416  -0.066   1.199   0.593  -1.508  -1.211   0.697   0.228
        0.127   0.000  -0.114  -2.077   1.056   0.066   0.015   1.338  -0.394

  Average fulfillment of the sum rule on Im[epsilon] for q-point    7 :     27.27  [%]


--------------------------------------------------------------------------------
  q-point number  8        q = (-0.250000, 0.000000, 0.333333) [r.l.u.]
--------------------------------------------------------------------------------
  chi0(G,G') at the    1 th omega   0.0000   0.0000 [eV]
       1       2       3       4       5       6       7       8       9
    1  -6.123   0.521   0.025  -0.540   0.515   0.749   0.515   0.749   1.498
       -0.000   0.902  -0.044  -0.000   0.439   0.484  -0.439  -0.484  -0.000

    2   0.521 -22.702  -0.128   2.105   1.491  -6.381  -2.862   3.298   1.791
       -0.902   0.000  -0.222  -3.645   2.444  -0.124  -0.069   5.464  -3.102

  chi0(G,G') at the    2 th omega   0.0000  24.2030 [eV]
       1       2       3       4       5       6       7       8       9
    1  -1.506   0.112   0.003  -0.143   0.120   0.209   0.120   0.209   0.428
       -0.000   0.193  -0.006   0.000   0.100   0.092  -0.100  -0.092  -0.000

    2   0.112  -7.067  -0.021   0.560   0.433  -1.935  -0.814   1.039   0.546
       -0.193   0.000  -0.037  -0.970   0.690  -0.082  -0.030   1.635  -0.946

  Average fulfillment of the sum rule on Im[epsilon] for q-point    8 :     30.70  [%]


--------------------------------------------------------------------------------
  q-point number  9        q = ( 0.250000, 0.250000, 0.333333) [r.l.u.]
--------------------------------------------------------------------------------
  chi0(G,G') at the    1 th omega   0.0000   0.0000 [eV]
       1       2       3       4       5       6       7       8       9
    1 -10.488  -1.263  -0.050   1.299   1.644  -0.310   2.062   1.268  -0.178
        0.000  -0.073  -0.568  -0.381  -0.755  -0.458   0.363   0.793   0.434

    2  -1.263 -23.286   0.286   3.456   1.727  -3.877  -3.920   2.988   1.033
        0.073   0.000  -0.327  -6.369   3.154  -0.012   0.031   5.552  -2.133

  chi0(G,G') at the    2 th omega   0.0000  24.2030 [eV]
       1       2       3       4       5       6       7       8       9
    1  -2.695  -0.300  -0.009   0.412   0.434  -0.088   0.600   0.321  -0.052
        0.000  -0.033  -0.141  -0.079  -0.177  -0.100   0.084   0.171   0.100

    2  -0.300  -7.286   0.053   1.061   0.498  -0.997  -1.215   0.840   0.270
        0.033   0.000  -0.085  -2.036   0.937   0.014   0.008   1.716  -0.559

  Average fulfillment of the sum rule on Im[epsilon] for q-point    9 :     27.40  [%]

== END DATASET(S) ==============================================================
================================================================================
  
 -outvars: echo values of variables after computation  --------
            acell      9.2843000799E+00  9.2843000799E+00  1.0213270550E+01 Bohr
              amu      2.80855000E+01  1.59994000E+01
             ecut      2.39922335E+01 Hartree
          ecuteps      7.91303771E+00 Hartree
          ecutwfn      2.39922335E+01 Hartree
           etotal      0.0000000000E+00
            fcart      0.0000000000E+00  0.0000000000E+00  0.0000000000E+00
                       0.0000000000E+00  0.0000000000E+00  0.0000000000E+00
                       0.0000000000E+00  0.0000000000E+00  0.0000000000E+00
                       0.0000000000E+00  0.0000000000E+00  0.0000000000E+00
                       0.0000000000E+00  0.0000000000E+00  0.0000000000E+00
                       0.0000000000E+00  0.0000000000E+00  0.0000000000E+00
                       0.0000000000E+00  0.0000000000E+00  0.0000000000E+00
                       0.0000000000E+00  0.0000000000E+00  0.0000000000E+00
                       0.0000000000E+00  0.0000000000E+00  0.0000000000E+00
           gwpara           2
          inclvkb           2
           irdkss           1
           istwfk        1    0    1    0    0    0    0    0    0
              kpt      0.00000000E+00  0.00000000E+00  0.00000000E+00
                       2.50000000E-01  0.00000000E+00  0.00000000E+00
                       5.00000000E-01  0.00000000E+00  0.00000000E+00
                       2.50000000E-01  2.50000000E-01  0.00000000E+00
                       0.00000000E+00  0.00000000E+00  3.33333333E-01
                       2.50000000E-01  0.00000000E+00  3.33333333E-01
                       5.00000000E-01  0.00000000E+00  3.33333333E-01
                      -2.50000000E-01  0.00000000E+00  3.33333333E-01
                       2.50000000E-01  2.50000000E-01  3.33333333E-01
          kptrlen      3.06398116E+01
         kptrlatt      4  0  0   0  4  0   0  0  3
P           mkmem           3
            natom           9
            nband          50
            ngfft          45      45      48
             nkpt           9
           npweps         811
           npwwfn        4301
           nsheps         142
            nstep         200
             nsym           6
           ntypat           2
              occ      2.000000  2.000000  2.000000  2.000000  2.000000  2.000000
                       2.000000  2.000000  2.000000  2.000000  2.000000  2.000000
                       2.000000  2.000000  2.000000  2.000000  2.000000  2.000000
                       2.000000  2.000000  2.000000  2.000000  2.000000  2.000000
                       0.000000  0.000000  0.000000  0.000000  0.000000  0.000000
                       0.000000  0.000000  0.000000  0.000000  0.000000  0.000000
                       0.000000  0.000000  0.000000  0.000000  0.000000  0.000000
                       0.000000  0.000000  0.000000  0.000000  0.000000  0.000000
                       0.000000  0.000000
        optdriver           3
            rprim      5.0000000000E-01 -8.6602540378E-01  0.0000000000E+00
                       5.0000000000E-01  8.6602540378E-01  0.0000000000E+00
                       0.0000000000E+00  0.0000000000E+00  1.0000000000E+00
          spgroup         154
           strten      0.0000000000E+00  0.0000000000E+00  0.0000000000E+00
                       0.0000000000E+00  0.0000000000E+00  0.0000000000E+00
           symrel      1  0  0   0  1  0   0  0  1       1  0  0  -1 -1  0   0  0 -1
                       0  1  0  -1 -1  0   0  0  1       0  1  0   1  0  0   0  0 -1
                      -1 -1  0   1  0  0   0  0  1      -1 -1  0   0  1  0   0  0 -1
           symchi        1
            tnons      0.0000000  0.0000000  0.0000000     0.0000000  0.0000000  0.0000000
                       0.0000000  0.0000000 -0.3333333     0.0000000  0.0000000 -0.3333333
                       0.0000000  0.0000000  0.3333333     0.0000000  0.0000000  0.3333333
            typat      1  1  1  2  2  2  2  2  2
              wtk        0.02083    0.12500    0.06250    0.12500    0.04167    0.12500
                         0.12500    0.12500    0.25000
           xangst      1.1422818000E+00 -1.9784901142E+00  0.0000000000E+00
                       1.1422818000E+00  1.9784901142E+00  3.6030866667E+00
                      -2.2845636000E+00  0.0000000000E+00  1.8015433333E+00
                       1.6876292400E+00 -6.0843889532E-01  6.4855560000E-01
                      -1.3707381600E+00 -1.1573103463E+00  2.4500989333E+00
                      -3.1689108000E-01  1.7657492417E+00  4.2516422667E+00
                      -3.1689108000E-01 -1.7657492417E+00 -6.4855560000E-01
                       1.6876292400E+00  6.0843889532E-01  2.9545310667E+00
                      -1.3707381600E+00  1.1573103463E+00  1.1529877333E+00
            xcart      2.1585997686E+00 -3.7388044724E+00  0.0000000000E+00
                       2.1585997686E+00  3.7388044724E+00  6.8088470331E+00
                      -4.3171995372E+00  0.0000000000E+00  3.4044235165E+00
                       3.1891570774E+00 -1.1497828807E+00  1.2255924659E+00
                      -2.5903197223E+00 -2.1869996053E+00  4.6300159825E+00
                      -5.9883735515E-01  3.3367824861E+00  8.0344394990E+00
                      -5.9883735515E-01 -3.3367824861E+00 -1.2255924659E+00
                       3.1891570774E+00  1.1497828807E+00  5.5832545671E+00
                      -2.5903197223E+00  2.1869996053E+00  2.1788310506E+00
             xred      4.6500000000E-01  0.0000000000E+00  0.0000000000E+00
                       0.0000000000E+00  4.6500000000E-01  6.6666666667E-01
                      -4.6500000000E-01 -4.6500000000E-01  3.3333333333E-01
                       4.1500000000E-01  2.7200000000E-01  1.2000000000E-01
                      -1.4300000000E-01 -4.1500000000E-01  4.5333333333E-01
                      -2.7200000000E-01  1.4300000000E-01  7.8666666667E-01
                       1.4300000000E-01 -2.7200000000E-01 -1.2000000000E-01
                       2.7200000000E-01  4.1500000000E-01  5.4666666667E-01
                      -4.1500000000E-01 -1.4300000000E-01  2.1333333333E-01
            znucl       14.00000    8.00000

================================================================================


- Timing analysis has been suppressed with timopt=0



================================================================================

 Suggested references for the acknowledgment of ABINIT usage.

 The users of ABINIT have little formal obligations with respect to the ABINIT group
 (those specified in the GNU General Public License, http://www.gnu.org/copyleft/gpl.txt).
 However, it is common practice in the scientific literature,
 to acknowledge the efforts of people that have made the research possible.
 In this spirit, please find below suggested citations of work written by ABINIT developers,
 corresponding to implementations inside of ABINIT that you have used in the present run.
 Note also that it will be of great value to readers of publications presenting these results,
 to read papers enabling them to understand the theoretical formalism and details
 of the ABINIT implementation.
 For information on why they are suggested, see also http://www.abinit.org/about/?text=acknowledgments.

 [1] ABINIT : First-principles approach of materials and nanosystem properties.
 X. Gonze, B. Amadon, P.-M. Anglade, J.-M. Beuken, F. Bottin, P. Boulanger, F. Bruneval,
 D. Caliste, R. Caracas, M. Cote, T. Deutsch, L. Genovese, Ph. Ghosez, M. Giantomassi
 S. Goedecker, D.R. Hamann, P. Hermet, F. Jollet, G. Jomard, S. Leroux, M. Mancini, S. Mazevet,
 M.J.T. Oliveira, G. Onida, Y. Pouillon, T. Rangel, G.-M. Rignanese, D. Sangalli, R. Shaltaf,
 M. Torrent, M.J. Verstraete, G. Zerah, J.W. Zwanziger
 Computer Phys. Comm. 180, 2582-2615 (2009).
 Comment : the third generic paper describing the ABINIT project.
 Note that a version of this paper, that is not formatted for Computer Phys. Comm. 
 is available at http://www.abinit.org/about/ABINIT_CPC_v10.pdf .
 The licence allows the authors to put it on the Web.

 [2] A brief introduction to the ABINIT software package.
 X. Gonze, G.-M. Rignanese, M. Verstraete, J.-M. Beuken, Y. Pouillon, R. Caracas, F. Jollet,
 M. Torrent, G. Zerah, M. Mikami, Ph. Ghosez, M. Veithen, J.-Y. Raty, V. Olevano, F. Bruneval,
 L. Reining, R. Godby, G. Onida, D.R. Hamann, and D.C. Allan.
 Z. Kristallogr. 220, 558-562 (2005).
 Comment : the second generic paper describing the ABINIT project. Note that this paper
 should be cited especially if you are using the GW part of ABINIT, as several authors
 of this part are not in the list of authors of the first or third paper.
 The .pdf of the latter paper is available at http://www.abinit.org/about/zfk_0505-06_558-562.pdf.
 Note that it should not redistributed (Copyright by Oldenburg Wissenshaftverlag,
 the licence allows the authors to put it on the Web).


 And optionally :

 [3] First-principles computation of material properties : the ABINIT software project. 
 X. Gonze, J.-M. Beuken, R. Caracas, F. Detraux, M. Fuchs, G.-M. Rignanese, L. Sindic,
 M. Verstraete, G. Zerah, F. Jollet, M. Torrent, A. Roy, M. Mikami, Ph. Ghosez, J.-Y. Raty, D.C. Allan.
 Computational Materials Science 25, 478-492 (2002). http://dx.doi.org/10.1016/S0927-0256(02)00325-7
 Comment : the original paper describing the ABINIT project.

 [4] Fast radix 2, 3, 4 and 5 kernels for Fast Fourier Transformations
 on computers with overlapping multiply-add instructions.
 S. Goedecker, SIAM J. on Scientific Computing 18, 1605 (1997).
-
- Proc.   0 individual time (sec): cpu=        448.0  wall=        448.0

================================================================================

 Calculation completed.
.Delivered    3 WARNINGs and   5 COMMENTs to log file.
+Overall time at end (sec) : cpu=       1791.9  wall=       1792.0
