
.Version 7.9.3 of ABINIT 
.(MPI version, prepared for a x86_64_linux_gnu4.7 computer) 

.Copyright (C) 1998-2014 ABINIT group . 
 ABINIT comes with ABSOLUTELY NO WARRANTY.
 It is free software, and you are welcome to redistribute it
 under certain conditions (GNU General Public License,
 see ~abinit/COPYING or http://www.gnu.org/copyleft/gpl.txt).

 ABINIT is a project of the Universite Catholique de Louvain,
 Corning Inc. and other collaborators, see ~abinit/doc/developers/contributors.txt .
 Please read ~abinit/doc/users/acknowledgments.html for suggested
 acknowledgments of the ABINIT effort.
 For more information, see http://www.abinit.org .

.Starting date : Sat 30 Aug 2014.
- ( at 22h31 )
  
- input  file    -> t86.in
- output file    -> t86.out
- root for input  files -> t86i
- root for output files -> t86o


 Symmetries : space group Im -3 m (#229); Bravais cI (body-center cubic)
================================================================================
 Values of the parameters that define the memory need of the present run
   intxc =         1  ionmov =         0    iscf =         5 xclevel =         1
  lmnmax =         9   lnmax =         9   mband =        18  mffmem =         1
P  mgfft =        24   mkmem =         1 mpssoang=         5     mpw =       459
  mqgrid =      3001   natom =         1    nfft =     13824    nkpt =         1
  nloalg =         4  nspden =         1 nspinor =         2  nsppol =         1
    nsym =        48  n1xccc =         0  ntypat =         1  occopt =         7
================================================================================
P This job should need less than                       5.079 Mbytes of memory.
  Rough estimation (10% accuracy) of disk space for files :
_ WF disk file :      0.128 Mbytes ; DEN or POT disk file :      0.107 Mbytes.
================================================================================

--------------------------------------------------------------------------------
------------- Echo of variables that govern the present computation ------------
--------------------------------------------------------------------------------
-
- outvars: echo of selected default values                                      
-   accesswff0 =  0 , fftalg0 =112 , wfoptalg0 =  0
-
- outvars: echo of global parameters not present in the input file              
-  max_nthreads =    0
-
 -outvars: echo values of preprocessed input variables --------
            acell      1.2000000000E+01  1.2000000000E+01  1.2000000000E+01 Bohr
              amu      1.80947900E+02
             ecut      5.00000000E+00 Hartree
           enunit           2
-          fftalg         112
            intxc           1
             iscf           5
           istwfk        1
              ixc           2
           kptopt           0
P           mkmem           1
            natom           1
            nband          18
            ngfft          24      24      24
             nkpt           1
            nline           5
          nspinor           2
            nstep          10
             nsym          48
           ntypat           1
              occ      1.000000  1.000000  1.000000  1.000000  1.000000  0.000000
                       0.000000  0.000000  0.000000  0.000000  0.000000  0.000000
                       0.000000  0.000000  0.000000  0.000000  0.000000  0.000000
           occopt           7
            rprim      5.0000000000E-01  5.0000000000E-01 -5.0000000000E-01
                      -5.0000000000E-01  5.0000000000E-01  5.0000000000E-01
                       5.0000000000E-01 -5.0000000000E-01  5.0000000000E-01
          spgroup         229
           symrel      1  0  0   0  1  0   0  0  1      -1  0  0   0 -1  0   0  0 -1
                      -1 -1 -1   0  0  1   0  1  0       1  1  1   0  0 -1   0 -1  0
                       0  1  0   1  0  0  -1 -1 -1       0 -1  0  -1  0  0   1  1  1
                       0  0  1  -1 -1 -1   1  0  0       0  0 -1   1  1  1  -1  0  0
                       0  1  0   1  0  0   0  0  1       0 -1  0  -1  0  0   0  0 -1
                      -1 -1 -1   0  0  1   1  0  0       1  1  1   0  0 -1  -1  0  0
                       1  0  0   0  1  0  -1 -1 -1      -1  0  0   0 -1  0   1  1  1
                       0  0  1  -1 -1 -1   0  1  0       0  0 -1   1  1  1   0 -1  0
                      -1 -1 -1   1  0  0   0  0  1       1  1  1  -1  0  0   0  0 -1
                       0  1  0   0  0  1   1  0  0       0 -1  0   0  0 -1  -1  0  0
                       1  0  0  -1 -1 -1   0  1  0      -1  0  0   1  1  1   0 -1  0
                       0  0  1   0  1  0  -1 -1 -1       0  0 -1   0 -1  0   1  1  1
                       1  0  0  -1 -1 -1   0  0  1      -1  0  0   1  1  1   0  0 -1
                       0  1  0   0  0  1  -1 -1 -1       0 -1  0   0  0 -1   1  1  1
                      -1 -1 -1   1  0  0   0  1  0       1  1  1  -1  0  0   0 -1  0
                       0  0  1   0  1  0   1  0  0       0  0 -1   0 -1  0  -1  0  0
                       0  1  0  -1 -1 -1   0  0  1       0 -1  0   1  1  1   0  0 -1
                       1  0  0   0  0  1  -1 -1 -1      -1  0  0   0  0 -1   1  1  1
                      -1 -1 -1   0  1  0   1  0  0       1  1  1   0 -1  0  -1  0  0
                       0  0  1   1  0  0   0  1  0       0  0 -1  -1  0  0   0 -1  0
                      -1 -1 -1   0  1  0   0  0  1       1  1  1   0 -1  0   0  0 -1
                       1  0  0   0  0  1   0  1  0      -1  0  0   0  0 -1   0 -1  0
                       0  1  0  -1 -1 -1   1  0  0       0 -1  0   1  1  1  -1  0  0
                       0  0  1   1  0  0  -1 -1 -1       0  0 -1  -1  0  0   1  1  1
           toldfe      1.00000000E-07 Hartree
           tsmear      1.00000000E-02 Hartree
            typat      1
            znucl       73.00000

================================================================================

 chkinp: Checking input parameters for consistency.

================================================================================
== DATASET  1 ==================================================================
-   nproc =    1

 Exchange-correlation functional for the present dataset will be:
  LDA: Perdew-Zunger-Ceperley-Alder - ixc=2
 Citation for XC functional:
  J.P.Perdew and A.Zunger, PRB 23, 5048 (1981)

 Real(R)+Recip(G) space primitive vectors, cartesian coordinates (Bohr,Bohr^-1):
 R(1)=  6.0000000  6.0000000 -6.0000000  G(1)=  0.0833333  0.0833333  0.0000000
 R(2)= -6.0000000  6.0000000  6.0000000  G(2)=  0.0000000  0.0833333  0.0833333
 R(3)=  6.0000000 -6.0000000  6.0000000  G(3)=  0.0833333  0.0000000  0.0833333
 Unit cell volume ucvol=  8.6400000E+02 bohr^3
 Angles (23,13,12)=  1.09471221E+02  1.09471221E+02  1.09471221E+02 degrees

 getcut: wavevector=  0.0000  0.0000  0.0000  ngfft=  24  24  24
         ecut(hartree)=      5.000   => boxcut(ratio)=   2.29429

 getcut : COMMENT -
  Note that boxcut > 2.2 ; recall that boxcut=Gcut(box)/Gcut(sphere) = 2
  is sufficient for exact treatment of convolution.
  Such a large boxcut is a waste : you could raise ecut
  e.g. ecut=    6.579736 Hartrees makes boxcut=2


--- Pseudopotential description ------------------------------------------------
- pspini: atom type   1  psp file is /home/gonze/ABINIT/ABINITv7.9.3/trunk/7.9.3-private/tests/Psps_for_tests/73ta.tm_so
- pspatm: opening atomic psp file    /home/gonze/ABINIT/ABINITv7.9.3/trunk/7.9.3-private/tests/Psps_for_tests/73ta.tm_so
- pseudo Tantale spin orbite Stephane modifie coulombien r>10
- 73.00000   5.00000    990913                znucl, zion, pspdat
    5    2    2    0      1046   0.00000      pspcod,pspxc,lmax,lloc,mmax,r2well
    2.508992E-04    1.250000E-02              r1 and al (Hamman grid)
 Pseudopotential is in spin-orbit format
    0   0.000   0.000    1   2.7600000        l,e99.0,e99.9,nproj,rcpsp
   0.00000000   0.00000000   0.00000000   0.00000000     rms, ekb1, ekb2, epsatm
    1   0.000   0.000    2   3.9100000        l,e99.0,e99.9,nproj,rcpsp
   0.00000000   0.00000000   0.00000000   0.00000000     rms, ekb1, ekb2, epsatm
    1   0.000   0.000    2   3.9100000        l,e99.0,e99.9,nproj,rcpsp
   0.00000000   0.00000000   0.00000000   0.00000000     rms, ekb1, ekb2, epsatm
    2   0.000   0.000    2   1.5700000        l,e99.0,e99.9,nproj,rcpsp
   0.00000000   0.00000000   0.00000000   0.00000000     rms, ekb1, ekb2, epsatm
    2   0.000   0.000    2   1.5700000        l,e99.0,e99.9,nproj,rcpsp
   0.00000000   0.00000000   0.00000000   0.00000000     rms, ekb1, ekb2, epsatm
    0.00000000000000    0.00000000000000    0.00000000000000   rchrg,fchrg,qchrg
 pspatm: epsatm=   75.99540769
         --- l  ekb(1:nproj) -->
             0    0.000000
             1    1.000000    0.500000
             2   -1.000000   -1.500000
  spin-orbit 1   -2.061553    2.061553
  spin-orbit 2    2.061553   -2.061553
 pspatm: atomic psp has been read  and splines computed

   3.79977038E+02                                ecore*ucvol(ha*bohr**3)
--------------------------------------------------------------------------------

P newkpt: treating     18 bands with npw=     459 for ikpt=   1 by node    0

_setup2: Arith. and geom. avg. npw (full set) are     459.000     459.000

================================================================================

     iter   Etot(hartree)      deltaE(h)  residm     vres2
 ETOT  1  -4.4297209965343    -4.430E+00 2.654E-02 3.838E+01
 ETOT  2  -4.4815404711662    -5.182E-02 1.902E-05 3.411E-01
 ETOT  3  -4.4818811208994    -3.406E-04 2.904E-07 1.120E-02
 ETOT  4  -4.4818791316523     1.989E-06 4.122E-09 2.755E-02
 ETOT  5  -4.4818831247520    -3.993E-06 2.092E-09 8.253E-03
 ETOT  6  -4.4818849659605    -1.841E-06 3.512E-09 3.699E-04
 ETOT  7  -4.4818849682863    -2.326E-09 1.162E-11 2.807E-04
 ETOT  8  -4.4818849892676    -2.098E-08 1.100E-11 9.744E-05

 At SCF step    8, etot is converged : 
  for the second time, diff in etot=  2.098E-08 < toldfe=  1.000E-07

 Cartesian components of stress tensor (hartree/bohr^3)
  sigma(1 1)=  6.88155508E-04  sigma(3 2)=  0.00000000E+00
  sigma(2 2)=  6.88155508E-04  sigma(3 1)=  0.00000000E+00
  sigma(3 3)=  6.88155508E-04  sigma(2 1)=  0.00000000E+00

================================================================================

 ----iterations are completed or convergence reached----

 Mean square residual over all n,k,spin=   3.5675E-12; max=  1.1005E-11
   0.0000  0.0000  0.0000    1  1.10046E-11 kpt; spin; max resid(k); each band:
  1.10E-11 1.10E-11 1.11E-12 1.11E-12 1.14E-12 1.14E-12 1.20E-12 1.21E-12
  7.91E-12 8.07E-12 7.89E-12 8.09E-12 6.26E-13 6.28E-13 4.83E-13 5.78E-13
  4.71E-13 5.54E-13
 reduced coordinates (array xred) for    1 atoms
       0.000000000000      0.000000000000      0.000000000000
 rms dE/dt=  0.0000E+00; max dE/dt=  0.0000E+00; dE/dt below (all hartree)
    1       0.000000000000      0.000000000000      0.000000000000

 cartesian coordinates (angstrom) at end:
    1      0.00000000000000     0.00000000000000     0.00000000000000

 cartesian forces (hartree/bohr) at end:
    1     -0.00000000000000    -0.00000000000000    -0.00000000000000
 frms,max,avg= 0.0000000E+00 0.0000000E+00   0.000E+00  0.000E+00  0.000E+00 h/b

 cartesian forces (eV/Angstrom) at end:
    1     -0.00000000000000    -0.00000000000000    -0.00000000000000
 frms,max,avg= 0.0000000E+00 0.0000000E+00   0.000E+00  0.000E+00  0.000E+00 e/A
 length scales= 12.000000000000 12.000000000000 12.000000000000 bohr
              =  6.350126503080  6.350126503080  6.350126503080 angstroms
 prteigrs : about to open file t86o_EIG
 Fermi (or HOMO) energy (hartree) =  -0.09150   Average Vxc (hartree)=  -0.18368
 Eigenvalues (hartree) for nkpt=   1  k points:
 kpt#   1, nband= 18, wtk=  1.00000, kpt=  0.0000  0.0000  0.0000 (reduced coord)
  -0.25030  -0.25030  -0.09157  -0.09157  -0.09147  -0.09147  -0.09146  -0.09146
  -0.05272  -0.05272  -0.05272  -0.05272  -0.01354  -0.01354   0.02666   0.02666
   0.02666   0.02666
      occupation numbers for kpt#   1
   1.00000   1.00000   0.50401   0.50401   0.49824   0.49824   0.49775   0.49775
   0.00000   0.00000   0.00000   0.00000   0.00000   0.00000   0.00000   0.00000
   0.00000   0.00000
 Fermi (or HOMO) energy (eV) =  -2.48975   Average Vxc (eV)=  -4.99811
 Eigenvalues (   eV  ) for nkpt=   1  k points:
 kpt#   1, nband= 18, wtk=  1.00000, kpt=  0.0000  0.0000  0.0000 (reduced coord)
  -6.81102  -6.81102  -2.49169  -2.49169  -2.48890  -2.48890  -2.48867  -2.48867
  -1.43472  -1.43472  -1.43471  -1.43471  -0.36831  -0.36831   0.72557   0.72557
   0.72557   0.72557
 Total charge density [el/Bohr^3]
,     Maximum=    6.9068E-02  at reduced coord.    0.8333    0.8333    0.8333
,Next maximum=    6.9068E-02  at reduced coord.    0.0000    0.0000    0.8333
,     Minimum=    4.4231E-04  at reduced coord.    0.0000    0.0000    0.0000
,Next minimum=    4.9072E-04  at reduced coord.    0.6667    0.5000    0.1667
,  Integrated=    5.0000E+00

--------------------------------------------------------------------------------
 Components of total free energy (in Hartree) :

    Kinetic energy  =  3.07227424941060E+00
    Hartree energy  =  6.79988594879460E-01
    XC energy       = -1.12939546628747E+00
    Ewald energy    = -3.79086817657133E+00
    PspCore energy  =  4.39788238949310E-01
    Loc. psp. energy= -1.46078374944576E+00
    NL   psp  energy= -2.27596341906898E+00
    >>>>> Internal E= -4.46495972813418E+00

    -kT*entropy     = -1.69252611333732E-02
    >>>>>>>>> Etotal= -4.48188498926755E+00

 Other information on the energy :
    Total energy(eV)= -1.21958292859331E+02 ; Band energy (Ha)=  -7.7509188232E-01
--------------------------------------------------------------------------------

 Cartesian components of stress tensor (hartree/bohr^3)
  sigma(1 1)=  6.88155508E-04  sigma(3 2)=  0.00000000E+00
  sigma(2 2)=  6.88155508E-04  sigma(3 1)=  0.00000000E+00
  sigma(3 3)=  6.88155508E-04  sigma(2 1)=  0.00000000E+00

-Cartesian components of stress tensor (GPa)         [Pressure= -2.0246E+01 GPa]
- sigma(1 1)=  2.02462306E+01  sigma(3 2)=  0.00000000E+00
- sigma(2 2)=  2.02462306E+01  sigma(3 1)=  0.00000000E+00
- sigma(3 3)=  2.02462306E+01  sigma(2 1)=  0.00000000E+00

== END DATASET(S) ==============================================================
================================================================================
  
 -outvars: echo values of variables after computation  --------
            acell      1.2000000000E+01  1.2000000000E+01  1.2000000000E+01 Bohr
              amu      1.80947900E+02
             ecut      5.00000000E+00 Hartree
           enunit           2
           etotal     -4.4818849893E+00
            fcart     -0.0000000000E+00 -0.0000000000E+00 -0.0000000000E+00
-          fftalg         112
            intxc           1
             iscf           5
           istwfk        1
              ixc           2
           kptopt           0
P           mkmem           1
            natom           1
            nband          18
            ngfft          24      24      24
             nkpt           1
            nline           5
          nspinor           2
            nstep          10
             nsym          48
           ntypat           1
              occ      1.000000  1.000000  0.504010  0.504010  0.498237  0.498237
                       0.497752  0.497752  0.000000  0.000000  0.000000  0.000000
                       0.000000  0.000000  0.000000  0.000000  0.000000  0.000000
           occopt           7
            rprim      5.0000000000E-01  5.0000000000E-01 -5.0000000000E-01
                      -5.0000000000E-01  5.0000000000E-01  5.0000000000E-01
                       5.0000000000E-01 -5.0000000000E-01  5.0000000000E-01
          spgroup         229
           strten      6.8815550840E-04  6.8815550840E-04  6.8815550840E-04
                       0.0000000000E+00  0.0000000000E+00  0.0000000000E+00
           symrel      1  0  0   0  1  0   0  0  1      -1  0  0   0 -1  0   0  0 -1
                      -1 -1 -1   0  0  1   0  1  0       1  1  1   0  0 -1   0 -1  0
                       0  1  0   1  0  0  -1 -1 -1       0 -1  0  -1  0  0   1  1  1
                       0  0  1  -1 -1 -1   1  0  0       0  0 -1   1  1  1  -1  0  0
                       0  1  0   1  0  0   0  0  1       0 -1  0  -1  0  0   0  0 -1
                      -1 -1 -1   0  0  1   1  0  0       1  1  1   0  0 -1  -1  0  0
                       1  0  0   0  1  0  -1 -1 -1      -1  0  0   0 -1  0   1  1  1
                       0  0  1  -1 -1 -1   0  1  0       0  0 -1   1  1  1   0 -1  0
                      -1 -1 -1   1  0  0   0  0  1       1  1  1  -1  0  0   0  0 -1
                       0  1  0   0  0  1   1  0  0       0 -1  0   0  0 -1  -1  0  0
                       1  0  0  -1 -1 -1   0  1  0      -1  0  0   1  1  1   0 -1  0
                       0  0  1   0  1  0  -1 -1 -1       0  0 -1   0 -1  0   1  1  1
                       1  0  0  -1 -1 -1   0  0  1      -1  0  0   1  1  1   0  0 -1
                       0  1  0   0  0  1  -1 -1 -1       0 -1  0   0  0 -1   1  1  1
                      -1 -1 -1   1  0  0   0  1  0       1  1  1  -1  0  0   0 -1  0
                       0  0  1   0  1  0   1  0  0       0  0 -1   0 -1  0  -1  0  0
                       0  1  0  -1 -1 -1   0  0  1       0 -1  0   1  1  1   0  0 -1
                       1  0  0   0  0  1  -1 -1 -1      -1  0  0   0  0 -1   1  1  1
                      -1 -1 -1   0  1  0   1  0  0       1  1  1   0 -1  0  -1  0  0
                       0  0  1   1  0  0   0  1  0       0  0 -1  -1  0  0   0 -1  0
                      -1 -1 -1   0  1  0   0  0  1       1  1  1   0 -1  0   0  0 -1
                       1  0  0   0  0  1   0  1  0      -1  0  0   0  0 -1   0 -1  0
                       0  1  0  -1 -1 -1   1  0  0       0 -1  0   1  1  1  -1  0  0
                       0  0  1   1  0  0  -1 -1 -1       0  0 -1  -1  0  0   1  1  1
           toldfe      1.00000000E-07 Hartree
           tsmear      1.00000000E-02 Hartree
            typat      1
            znucl       73.00000

================================================================================


- Timing analysis has been suppressed with timopt=0



================================================================================

 Suggested references for the acknowledgment of ABINIT usage.

 The users of ABINIT have little formal obligations with respect to the ABINIT group
 (those specified in the GNU General Public License, http://www.gnu.org/copyleft/gpl.txt).
 However, it is common practice in the scientific literature,
 to acknowledge the efforts of people that have made the research possible.
 In this spirit, please find below suggested citations of work written by ABINIT developers,
 corresponding to implementations inside of ABINIT that you have used in the present run.
 Note also that it will be of great value to readers of publications presenting these results,
 to read papers enabling them to understand the theoretical formalism and details
 of the ABINIT implementation.
 For information on why they are suggested, see also http://www.abinit.org/about/?text=acknowledgments.

 [1] ABINIT : First-principles approach of materials and nanosystem properties.
 X. Gonze, B. Amadon, P.-M. Anglade, J.-M. Beuken, F. Bottin, P. Boulanger, F. Bruneval,
 D. Caliste, R. Caracas, M. Cote, T. Deutsch, L. Genovese, Ph. Ghosez, M. Giantomassi
 S. Goedecker, D.R. Hamann, P. Hermet, F. Jollet, G. Jomard, S. Leroux, M. Mancini, S. Mazevet,
 M.J.T. Oliveira, G. Onida, Y. Pouillon, T. Rangel, G.-M. Rignanese, D. Sangalli, R. Shaltaf,
 M. Torrent, M.J. Verstraete, G. Zerah, J.W. Zwanziger
 Computer Phys. Comm. 180, 2582-2615 (2009).
 Comment : the third generic paper describing the ABINIT project.
 Note that a version of this paper, that is not formatted for Computer Phys. Comm. 
 is available at http://www.abinit.org/about/ABINIT_CPC_v10.pdf .
 The licence allows the authors to put it on the Web.

 [2] A brief introduction to the ABINIT software package.
 X. Gonze, G.-M. Rignanese, M. Verstraete, J.-M. Beuken, Y. Pouillon, R. Caracas, F. Jollet,
 M. Torrent, G. Zerah, M. Mikami, Ph. Ghosez, M. Veithen, J.-Y. Raty, V. Olevano, F. Bruneval,
 L. Reining, R. Godby, G. Onida, D.R. Hamann, and D.C. Allan.
 Z. Kristallogr. 220, 558-562 (2005).
 Comment : the second generic paper describing the ABINIT project. Note that this paper
 should be cited especially if you are using the GW part of ABINIT, as several authors
 of this part are not in the list of authors of the first or third paper.
 The .pdf of the latter paper is available at http://www.abinit.org/about/zfk_0505-06_558-562.pdf.
 Note that it should not redistributed (Copyright by Oldenburg Wissenshaftverlag,
 the licence allows the authors to put it on the Web).


 And optionally :

 [3] First-principles computation of material properties : the ABINIT software project. 
 X. Gonze, J.-M. Beuken, R. Caracas, F. Detraux, M. Fuchs, G.-M. Rignanese, L. Sindic,
 M. Verstraete, G. Zerah, F. Jollet, M. Torrent, A. Roy, M. Mikami, Ph. Ghosez, J.-Y. Raty, D.C. Allan.
 Computational Materials Science 25, 478-492 (2002). http://dx.doi.org/10.1016/S0927-0256(02)00325-7
 Comment : the original paper describing the ABINIT project.

 [4] Fast radix 2, 3, 4 and 5 kernels for Fast Fourier Transformations
 on computers with overlapping multiply-add instructions.
 S. Goedecker, SIAM J. on Scientific Computing 18, 1605 (1997).

 [5] Towards a potential-based conjugate gradient algorithm for order-N self-consistent
 total energy calculations.
 X. Gonze, Phys. Rev. B 54, 4383 (1996).
 Comment : The potential-based conjugate-gradient algorithm, used when iscf=5, is not published.
 However, many elements of this algorithm have been explained in the paper above.
-
- Proc.   0 individual time (sec): cpu=          2.1  wall=          2.1

================================================================================

 Calculation completed.
.Delivered    0 WARNINGs and   2 COMMENTs to log file.
+Overall time at end (sec) : cpu=          2.1  wall=          2.1
