
.Version 7.10.4 of ABINIT 
.(MPI version, prepared for a x86_64_linux_gnu4.7 computer) 

.Copyright (C) 1998-2014 ABINIT group . 
 ABINIT comes with ABSOLUTELY NO WARRANTY.
 It is free software, and you are welcome to redistribute it
 under certain conditions (GNU General Public License,
 see ~abinit/COPYING or http://www.gnu.org/copyleft/gpl.txt).

 ABINIT is a project of the Universite Catholique de Louvain,
 Corning Inc. and other collaborators, see ~abinit/doc/developers/contributors.txt .
 Please read ~abinit/doc/users/acknowledgments.html for suggested
 acknowledgments of the ABINIT effort.
 For more information, see http://www.abinit.org .

.Starting date : Sun  1 Feb 2015.
- ( at 15h06 )
  
- input  file    -> t98.in
- output file    -> t98.out
- root for input  files -> t98i
- root for output files -> t98o


 DATASET    1 : space group F-4 3 m (#216); Bravais cF (face-center cubic)
================================================================================
 Values of the parameters that define the memory need for DATASET  1.
   intxc =         0  ionmov =         0    iscf =         3 xclevel =         1
  lmnmax =         2   lnmax =         2   mband =         4  mffmem =         1
P  mgfft =        10   mkmem =         2 mpssoang=         3     mpw =        43
  mqgrid =      3001   natom =         2    nfft =      1000    nkpt =         2
  nloalg =         4  nspden =         1 nspinor =         1  nsppol =         1
    nsym =        24  n1xccc =         0  ntypat =         2  occopt =         1
================================================================================
P This job should need less than                       0.793 Mbytes of memory.
  Rough estimation (10% accuracy) of disk space for files :
_ WF disk file :      0.007 Mbytes ; DEN or POT disk file :      0.010 Mbytes.
================================================================================


 DATASET    2 : space group F-4 3 m (#216); Bravais cF (face-center cubic)
================================================================================
 Values of the parameters that define the memory need for DATASET  2 (RF).
   intxc =         0    iscf =        -3 xclevel =         1  lmnmax =         2
   lnmax =         2   mband =         4  mffmem =         1   mgfft =         8
P  mkmem =        32  mkqmem =        32  mk1mem =        32 mpssoang=         3
     mpw =        24  mqgrid =      3001   natom =         2    nfft =       512
    nkpt =        32  nloalg =         4  nspden =         1 nspinor =         1
  nsppol =         1    nsym =        24  n1xccc =         0  ntypat =         2
  occopt =         1
================================================================================
P This job should need less than                       0.878 Mbytes of memory.
  Rough estimation (10% accuracy) of disk space for files :
_ WF disk file :      0.049 Mbytes ; DEN or POT disk file :      0.006 Mbytes.
================================================================================


 DATASET    3 : space group F-4 3 m (#216); Bravais cF (face-center cubic)
================================================================================
 Values of the parameters that define the memory need for DATASET  3 (RF).
   intxc =         0    iscf =         3 xclevel =         1  lmnmax =         2
   lnmax =         2   mband =         4  mffmem =         1   mgfft =         8
P  mkmem =        32  mkqmem =        32  mk1mem =        32 mpssoang=         3
     mpw =        24  mqgrid =      3001   natom =         2    nfft =       512
    nkpt =        32  nloalg =         4  nspden =         1 nspinor =         1
  nsppol =         1    nsym =        24  n1xccc =         0  ntypat =         2
  occopt =         1
================================================================================
P This job should need less than                       0.893 Mbytes of memory.
  Rough estimation (10% accuracy) of disk space for files :
_ WF disk file :      0.049 Mbytes ; DEN or POT disk file :      0.006 Mbytes.
================================================================================


 DATASET    4 : space group F-4 3 m (#216); Bravais cF (face-center cubic)
================================================================================
 Values of the parameters that define the memory need for DATASET  4 (RF).
   intxc =         0    iscf =        -3 xclevel =         1  lmnmax =         2
   lnmax =         2   mband =         4  mffmem =         1   mgfft =        10
P  mkmem =        32  mkqmem =        32  mk1mem =        32 mpssoang=         3
     mpw =        43  mqgrid =      3001   natom =         2    nfft =      1000
    nkpt =        32  nloalg =         4  nspden =         1 nspinor =         1
  nsppol =         1    nsym =        24  n1xccc =         0  ntypat =         2
  occopt =         1
================================================================================
P This job should need less than                       1.092 Mbytes of memory.
  Rough estimation (10% accuracy) of disk space for files :
_ WF disk file :      0.086 Mbytes ; DEN or POT disk file :      0.010 Mbytes.
================================================================================


 DATASET    5 : space group F-4 3 m (#216); Bravais cF (face-center cubic)
================================================================================
 Values of the parameters that define the memory need for DATASET  5 (RF).
   intxc =         0    iscf =         3 xclevel =         1  lmnmax =         2
   lnmax =         2   mband =         4  mffmem =         1   mgfft =        10
P  mkmem =        32  mkqmem =        32  mk1mem =        32 mpssoang=         3
     mpw =        43  mqgrid =      3001   natom =         2    nfft =      1000
    nkpt =        32  nloalg =         4  nspden =         1 nspinor =         1
  nsppol =         1    nsym =        24  n1xccc =         0  ntypat =         2
  occopt =         1
================================================================================
P This job should need less than                       1.122 Mbytes of memory.
  Rough estimation (10% accuracy) of disk space for files :
_ WF disk file :      0.086 Mbytes ; DEN or POT disk file :      0.010 Mbytes.
================================================================================

--------------------------------------------------------------------------------
------------- Echo of variables that govern the present computation ------------
--------------------------------------------------------------------------------
-
- outvars: echo of selected default values                                      
-   accesswff0 =  0 , fftalg0 =112 , wfoptalg0 =  0
-
- outvars: echo of global parameters not present in the input file              
-  max_nthreads =    0
-
 -outvars: echo values of preprocessed input variables --------
            acell      1.0600000000E+01  1.0600000000E+01  1.0600000000E+01 Bohr
              amu      6.97200000E+01  7.49216000E+01
           diemac      6.00000000E+00
          dilatmx1     1.20000000E+00
          dilatmx2     1.00000000E+00
          dilatmx3     1.00000000E+00
          dilatmx4     1.20000000E+00
          dilatmx5     1.20000000E+00
             ecut      1.40000000E+00 Hartree
           ecutsm      4.00000000E-01 Hartree
-          fftalg         112
           getddk1          0
           getddk2          2
           getddk3          2
           getddk4          4
           getddk5          4
           getwfk1          0
           getwfk2          1
           getwfk3          1
           getwfk4          1
           getwfk5          1
             iscf1          3
             iscf2         -3
             iscf3          3
             iscf4         -3
             iscf5          3
              ixc           3
           jdtset        1    2    3    4    5
              kpt1    -2.50000000E-01  5.00000000E-01  0.00000000E+00
                      -2.50000000E-01  0.00000000E+00  0.00000000E+00
              kpt2    -2.50000000E-01  5.00000000E-01  0.00000000E+00
                       5.00000000E-01 -2.50000000E-01  0.00000000E+00
                      -2.50000000E-01 -2.50000000E-01  2.50000000E-01
                      -2.50000000E-01  0.00000000E+00  0.00000000E+00
                       5.00000000E-01  2.50000000E-01  0.00000000E+00
                      -2.50000000E-01  2.50000000E-01  2.50000000E-01
                       2.50000000E-01  5.00000000E-01  0.00000000E+00
                       5.00000000E-01  5.00000000E-01  2.50000000E-01
                      -2.50000000E-01  5.00000000E-01  5.00000000E-01
                       0.00000000E+00 -2.50000000E-01  0.00000000E+00
                       2.50000000E-01 -2.50000000E-01  2.50000000E-01
                       5.00000000E-01 -2.50000000E-01  5.00000000E-01
                      -2.50000000E-01 -2.50000000E-01 -2.50000000E-01
                       2.50000000E-01  0.00000000E+00  0.00000000E+00
                       5.00000000E-01  0.00000000E+00  2.50000000E-01
                      -2.50000000E-01  0.00000000E+00  5.00000000E-01
                       0.00000000E+00  2.50000000E-01  0.00000000E+00
                       2.50000000E-01  2.50000000E-01  2.50000000E-01
                       5.00000000E-01  2.50000000E-01  5.00000000E-01
                      -2.50000000E-01  2.50000000E-01 -2.50000000E-01
                       0.00000000E+00  5.00000000E-01  2.50000000E-01
                       2.50000000E-01  5.00000000E-01  5.00000000E-01
                       5.00000000E-01  5.00000000E-01 -2.50000000E-01
                       0.00000000E+00 -2.50000000E-01  5.00000000E-01
                       2.50000000E-01 -2.50000000E-01 -2.50000000E-01
                       0.00000000E+00  0.00000000E+00  2.50000000E-01
                       2.50000000E-01  0.00000000E+00  5.00000000E-01
                       5.00000000E-01  0.00000000E+00 -2.50000000E-01
                       0.00000000E+00  2.50000000E-01  5.00000000E-01
                       2.50000000E-01  2.50000000E-01 -2.50000000E-01
                       0.00000000E+00  5.00000000E-01 -2.50000000E-01
                       0.00000000E+00  0.00000000E+00 -2.50000000E-01
              kpt3    -2.50000000E-01  5.00000000E-01  0.00000000E+00
                       5.00000000E-01 -2.50000000E-01  0.00000000E+00
                      -2.50000000E-01 -2.50000000E-01  2.50000000E-01
                      -2.50000000E-01  0.00000000E+00  0.00000000E+00
                       5.00000000E-01  2.50000000E-01  0.00000000E+00
                      -2.50000000E-01  2.50000000E-01  2.50000000E-01
                       2.50000000E-01  5.00000000E-01  0.00000000E+00
                       5.00000000E-01  5.00000000E-01  2.50000000E-01
                      -2.50000000E-01  5.00000000E-01  5.00000000E-01
                       0.00000000E+00 -2.50000000E-01  0.00000000E+00
                       2.50000000E-01 -2.50000000E-01  2.50000000E-01
                       5.00000000E-01 -2.50000000E-01  5.00000000E-01
                      -2.50000000E-01 -2.50000000E-01 -2.50000000E-01
                       2.50000000E-01  0.00000000E+00  0.00000000E+00
                       5.00000000E-01  0.00000000E+00  2.50000000E-01
                      -2.50000000E-01  0.00000000E+00  5.00000000E-01
                       0.00000000E+00  2.50000000E-01  0.00000000E+00
                       2.50000000E-01  2.50000000E-01  2.50000000E-01
                       5.00000000E-01  2.50000000E-01  5.00000000E-01
                      -2.50000000E-01  2.50000000E-01 -2.50000000E-01
                       0.00000000E+00  5.00000000E-01  2.50000000E-01
                       2.50000000E-01  5.00000000E-01  5.00000000E-01
                       5.00000000E-01  5.00000000E-01 -2.50000000E-01
                       0.00000000E+00 -2.50000000E-01  5.00000000E-01
                       2.50000000E-01 -2.50000000E-01 -2.50000000E-01
                       0.00000000E+00  0.00000000E+00  2.50000000E-01
                       2.50000000E-01  0.00000000E+00  5.00000000E-01
                       5.00000000E-01  0.00000000E+00 -2.50000000E-01
                       0.00000000E+00  2.50000000E-01  5.00000000E-01
                       2.50000000E-01  2.50000000E-01 -2.50000000E-01
                       0.00000000E+00  5.00000000E-01 -2.50000000E-01
                       0.00000000E+00  0.00000000E+00 -2.50000000E-01
              kpt4    -2.50000000E-01  5.00000000E-01  0.00000000E+00
                       5.00000000E-01 -2.50000000E-01  0.00000000E+00
                      -2.50000000E-01 -2.50000000E-01  2.50000000E-01
                      -2.50000000E-01  0.00000000E+00  0.00000000E+00
                       5.00000000E-01  2.50000000E-01  0.00000000E+00
                      -2.50000000E-01  2.50000000E-01  2.50000000E-01
                       2.50000000E-01  5.00000000E-01  0.00000000E+00
                       5.00000000E-01  5.00000000E-01  2.50000000E-01
                      -2.50000000E-01  5.00000000E-01  5.00000000E-01
                       0.00000000E+00 -2.50000000E-01  0.00000000E+00
                       2.50000000E-01 -2.50000000E-01  2.50000000E-01
                       5.00000000E-01 -2.50000000E-01  5.00000000E-01
                      -2.50000000E-01 -2.50000000E-01 -2.50000000E-01
                       2.50000000E-01  0.00000000E+00  0.00000000E+00
                       5.00000000E-01  0.00000000E+00  2.50000000E-01
                      -2.50000000E-01  0.00000000E+00  5.00000000E-01
                       0.00000000E+00  2.50000000E-01  0.00000000E+00
                       2.50000000E-01  2.50000000E-01  2.50000000E-01
                       5.00000000E-01  2.50000000E-01  5.00000000E-01
                      -2.50000000E-01  2.50000000E-01 -2.50000000E-01
                       0.00000000E+00  5.00000000E-01  2.50000000E-01
                       2.50000000E-01  5.00000000E-01  5.00000000E-01
                       5.00000000E-01  5.00000000E-01 -2.50000000E-01
                       0.00000000E+00 -2.50000000E-01  5.00000000E-01
                       2.50000000E-01 -2.50000000E-01 -2.50000000E-01
                       0.00000000E+00  0.00000000E+00  2.50000000E-01
                       2.50000000E-01  0.00000000E+00  5.00000000E-01
                       5.00000000E-01  0.00000000E+00 -2.50000000E-01
                       0.00000000E+00  2.50000000E-01  5.00000000E-01
                       2.50000000E-01  2.50000000E-01 -2.50000000E-01
                       0.00000000E+00  5.00000000E-01 -2.50000000E-01
                       0.00000000E+00  0.00000000E+00 -2.50000000E-01
              kpt5    -2.50000000E-01  5.00000000E-01  0.00000000E+00
                       5.00000000E-01 -2.50000000E-01  0.00000000E+00
                      -2.50000000E-01 -2.50000000E-01  2.50000000E-01
                      -2.50000000E-01  0.00000000E+00  0.00000000E+00
                       5.00000000E-01  2.50000000E-01  0.00000000E+00
                      -2.50000000E-01  2.50000000E-01  2.50000000E-01
                       2.50000000E-01  5.00000000E-01  0.00000000E+00
                       5.00000000E-01  5.00000000E-01  2.50000000E-01
                      -2.50000000E-01  5.00000000E-01  5.00000000E-01
                       0.00000000E+00 -2.50000000E-01  0.00000000E+00
                       2.50000000E-01 -2.50000000E-01  2.50000000E-01
                       5.00000000E-01 -2.50000000E-01  5.00000000E-01
                      -2.50000000E-01 -2.50000000E-01 -2.50000000E-01
                       2.50000000E-01  0.00000000E+00  0.00000000E+00
                       5.00000000E-01  0.00000000E+00  2.50000000E-01
                      -2.50000000E-01  0.00000000E+00  5.00000000E-01
                       0.00000000E+00  2.50000000E-01  0.00000000E+00
                       2.50000000E-01  2.50000000E-01  2.50000000E-01
                       5.00000000E-01  2.50000000E-01  5.00000000E-01
                      -2.50000000E-01  2.50000000E-01 -2.50000000E-01
                       0.00000000E+00  5.00000000E-01  2.50000000E-01
                       2.50000000E-01  5.00000000E-01  5.00000000E-01
                       5.00000000E-01  5.00000000E-01 -2.50000000E-01
                       0.00000000E+00 -2.50000000E-01  5.00000000E-01
                       2.50000000E-01 -2.50000000E-01 -2.50000000E-01
                       0.00000000E+00  0.00000000E+00  2.50000000E-01
                       2.50000000E-01  0.00000000E+00  5.00000000E-01
                       5.00000000E-01  0.00000000E+00 -2.50000000E-01
                       0.00000000E+00  2.50000000E-01  5.00000000E-01
                       2.50000000E-01  2.50000000E-01 -2.50000000E-01
                       0.00000000E+00  5.00000000E-01 -2.50000000E-01
                       0.00000000E+00  0.00000000E+00 -2.50000000E-01
           kptopt1          1
           kptopt2          3
           kptopt3          3
           kptopt4          3
           kptopt5          3
         kptrlatt        2   -2    2     -2    2    2     -2   -2    2
          kptrlen      2.12000000E+01
P           mkmem1          2
P           mkmem2         32
P           mkmem3         32
P           mkmem4         32
P           mkmem5         32
P          mkqmem1          2
P          mkqmem2         32
P          mkqmem3         32
P          mkqmem4         32
P          mkqmem5         32
P          mk1mem1          2
P          mk1mem2         32
P          mk1mem3         32
P          mk1mem4         32
P          mk1mem5         32
            natom           2
            nband1          4
            nband2          4
            nband3          4
            nband4          4
            nband5          4
           ndtset           5
            ngfft1         10      10      10
            ngfft2          8       8       8
            ngfft3          8       8       8
            ngfft4         10      10      10
            ngfft5         10      10      10
             nkpt1          2
             nkpt2         32
             nkpt3         32
             nkpt4         32
             nkpt5         32
             nqpt1          0
             nqpt2          1
             nqpt3          1
             nqpt4          1
             nqpt5          1
            nstep          12
             nsym          24
           ntypat           2
              occ1     2.000000  2.000000  2.000000  2.000000
              occ2     2.000000  2.000000  2.000000  2.000000
              occ3     2.000000  2.000000  2.000000  2.000000
              occ4     2.000000  2.000000  2.000000  2.000000
              occ5     2.000000  2.000000  2.000000  2.000000
        optdriver1          0
        optdriver2          1
        optdriver3          1
        optdriver4          1
        optdriver5          1
          rfatpol1          1       1
          rfatpol2          1       1
          rfatpol3          1       2
          rfatpol4          1       1
          rfatpol5          1       2
            rfdir1          0       0       0
            rfdir2          1       0       0
            rfdir3          1       1       1
            rfdir4          1       0       0
            rfdir5          1       1       1
           rfelfd1          0
           rfelfd2          2
           rfelfd3          3
           rfelfd4          2
           rfelfd5          3
           rfphon1          0
           rfphon2          0
           rfphon3          1
           rfphon4          0
           rfphon5          1
            rprim      0.0000000000E+00  5.0000000000E-01  5.0000000000E-01
                       5.0000000000E-01  0.0000000000E+00  5.0000000000E-01
                       5.0000000000E-01  5.0000000000E-01  0.0000000000E+00
           shiftk      5.00000000E-01  5.00000000E-01  5.00000000E-01
          spgroup         216
           symrel      1  0  0   0  1  0   0  0  1       0 -1  1   0 -1  0   1 -1  0
                      -1  0  0  -1  0  1  -1  1  0       0  1 -1   1  0 -1   0  0 -1
                      -1  0  0  -1  1  0  -1  0  1       0 -1  1   1 -1  0   0 -1  0
                       1  0  0   0  0  1   0  1  0       0  1 -1   0  0 -1   1  0 -1
                      -1  0  1  -1  1  0  -1  0  0       0 -1  0   1 -1  0   0 -1  1
                       1  0 -1   0  0 -1   0  1 -1       0  1  0   0  0  1   1  0  0
                       1  0 -1   0  1 -1   0  0 -1       0 -1  0   0 -1  1   1 -1  0
                      -1  0  1  -1  0  0  -1  1  0       0  1  0   1  0  0   0  0  1
                       0  0 -1   0  1 -1   1  0 -1       1 -1  0   0 -1  1   0 -1  0
                       0  0  1   1  0  0   0  1  0      -1  1  0  -1  0  0  -1  0  1
                       0  0  1   0  1  0   1  0  0       1 -1  0   0 -1  0   0 -1  1
                       0  0 -1   1  0 -1   0  1 -1      -1  1  0  -1  0  1  -1  0  0
           tolwfr1     1.00000000E-22
           tolwfr2     1.00000000E-22
           tolwfr3     1.00000000E-16
           tolwfr4     1.00000000E-22
           tolwfr5     1.00000000E-16
            typat      1  2
              wtk1       0.75000    0.25000
              wtk2       0.03125    0.03125    0.03125    0.03125    0.03125    0.03125
                         0.03125    0.03125    0.03125    0.03125    0.03125    0.03125
                         0.03125    0.03125    0.03125    0.03125    0.03125    0.03125
                         0.03125    0.03125    0.03125    0.03125    0.03125    0.03125
                         0.03125    0.03125    0.03125    0.03125    0.03125    0.03125
                         0.03125    0.03125
              wtk3       0.03125    0.03125    0.03125    0.03125    0.03125    0.03125
                         0.03125    0.03125    0.03125    0.03125    0.03125    0.03125
                         0.03125    0.03125    0.03125    0.03125    0.03125    0.03125
                         0.03125    0.03125    0.03125    0.03125    0.03125    0.03125
                         0.03125    0.03125    0.03125    0.03125    0.03125    0.03125
                         0.03125    0.03125
              wtk4       0.03125    0.03125    0.03125    0.03125    0.03125    0.03125
                         0.03125    0.03125    0.03125    0.03125    0.03125    0.03125
                         0.03125    0.03125    0.03125    0.03125    0.03125    0.03125
                         0.03125    0.03125    0.03125    0.03125    0.03125    0.03125
                         0.03125    0.03125    0.03125    0.03125    0.03125    0.03125
                         0.03125    0.03125
              wtk5       0.03125    0.03125    0.03125    0.03125    0.03125    0.03125
                         0.03125    0.03125    0.03125    0.03125    0.03125    0.03125
                         0.03125    0.03125    0.03125    0.03125    0.03125    0.03125
                         0.03125    0.03125    0.03125    0.03125    0.03125    0.03125
                         0.03125    0.03125    0.03125    0.03125    0.03125    0.03125
                         0.03125    0.03125
           xangst      0.0000000000E+00  0.0000000000E+00  0.0000000000E+00
                       1.4023196028E+00  1.4023196028E+00  1.4023196028E+00
            xcart      0.0000000000E+00  0.0000000000E+00  0.0000000000E+00
                       2.6500000000E+00  2.6500000000E+00  2.6500000000E+00
             xred      0.0000000000E+00  0.0000000000E+00  0.0000000000E+00
                       2.5000000000E-01  2.5000000000E-01  2.5000000000E-01
            znucl       31.00000   33.00000

================================================================================

 chkinp: Checking input parameters for consistency, jdtset=   1.

 chkinp: Checking input parameters for consistency, jdtset=   2.

 chkinp: Checking input parameters for consistency, jdtset=   3.

 chkinp: Checking input parameters for consistency, jdtset=   4.

 chkinp: Checking input parameters for consistency, jdtset=   5.

================================================================================
== DATASET  1 ==================================================================
-   nproc =    1

 Exchange-correlation functional for the present dataset will be:
  LDA: old Teter (4/91) fit to Ceperley-Alder data - ixc=3

 Real(R)+Recip(G) space primitive vectors, cartesian coordinates (Bohr,Bohr^-1):
 R(1)=  0.0000000  5.3000000  5.3000000  G(1)= -0.0943396  0.0943396  0.0943396
 R(2)=  5.3000000  0.0000000  5.3000000  G(2)=  0.0943396 -0.0943396  0.0943396
 R(3)=  5.3000000  5.3000000  0.0000000  G(3)=  0.0943396  0.0943396 -0.0943396
 Unit cell volume ucvol=  2.9775400E+02 bohr^3
 Angles (23,13,12)=  6.00000000E+01  6.00000000E+01  6.00000000E+01 degrees

 getcut: wavevector=  0.0000  0.0000  0.0000  ngfft=  10  10  10
         ecut(hartree)=      2.016   => boxcut(ratio)=   2.10814

--- Pseudopotential description ------------------------------------------------
- pspini: atom type   1  psp file is /data/ABINIT/testf_gcc47/trunk_7.10.4-training/tests/Psps_for_tests/31ga.SGS_mod
- pspatm: opening atomic psp file    /data/ABINIT/testf_gcc47/trunk_7.10.4-training/tests/Psps_for_tests/31ga.SGS_mod
-   pspot from prpsa - Bachelet or Stumpf table ( !! OLD, only for tests )
- 31.00000   3.00000    900101                znucl, zion, pspdat
    5    3    2    2       267   0.00000      pspcod,pspxc,lmax,lloc,mmax,r2well
    3.225807E-04    4.879035E-02              r1 and al (Hamman grid)
    0   0.000   0.000    1   1.2712000        l,e99.0,e99.9,nproj,rcpsp
   0.00000000   0.00000000   0.00000000   0.00000000     rms, ekb1, ekb2, epsatm
    1   0.000   0.000    1   1.4316000        l,e99.0,e99.9,nproj,rcpsp
   0.00000000   0.00000000   0.00000000   0.00000000     rms, ekb1, ekb2, epsatm
    2   0.000   0.000    0   1.4889000        l,e99.0,e99.9,nproj,rcpsp
   0.00000000   0.00000000   0.00000000   0.00000000     rms, ekb1, ekb2, epsatm
    0.00000000000000    0.00000000000000    0.00000000000000   rchrg,fchrg,qchrg
 pspatm: epsatm=   19.73612150
         --- l  ekb(1:nproj) -->
             0    9.397339
             1   -0.525725
 pspatm: atomic psp has been read  and splines computed

- pspini: atom type   2  psp file is /data/ABINIT/testf_gcc47/trunk_7.10.4-training/tests/Psps_for_tests/33as.SGS_mod
- pspatm: opening atomic psp file    /data/ABINIT/testf_gcc47/trunk_7.10.4-training/tests/Psps_for_tests/33as.SGS_mod
-   pspot from prpsa - Bachelet or Stumpf table ( !! OLD, for testing purposes only )
- 33.00000   5.00000    900101                znucl, zion, pspdat
    5    3    2    2       269   0.00000      pspcod,pspxc,lmax,lloc,mmax,r2well
    3.030304E-04    4.879035E-02              r1 and al (Hamman grid)
    0   0.000   0.000    1   1.0000000        l,e99.0,e99.9,nproj,rcpsp
   0.00000000   0.00000000   0.00000000   0.00000000     rms, ekb1, ekb2, epsatm
    1   0.000   0.000    1   1.0000000        l,e99.0,e99.9,nproj,rcpsp
   0.00000000   0.00000000   0.00000000   0.00000000     rms, ekb1, ekb2, epsatm
    2   0.000   0.000    0   1.0000000        l,e99.0,e99.9,nproj,rcpsp
   0.00000000   0.00000000   0.00000000   0.00000000     rms, ekb1, ekb2, epsatm
    0.00000000000000    0.00000000000000    0.00000000000000   rchrg,fchrg,qchrg
 pspatm: epsatm=   26.05495600
         --- l  ekb(1:nproj) -->
             0    9.019459
             1   -0.908274
 pspatm: atomic psp has been read  and splines computed

   3.66328620E+02                                ecore*ucvol(ha*bohr**3)
--------------------------------------------------------------------------------

P newkpt: treating      4 bands with npw=      41 for ikpt=   1 by node    0
P newkpt: treating      4 bands with npw=      43 for ikpt=   2 by node    0

_setup2: Arith. and geom. avg. npw (full set) are      41.500      41.491

================================================================================

     iter   Etot(hartree)      deltaE(h)  residm     vres2
 ETOT  1  -8.0916601626526    -8.092E+00 2.965E-04 3.000E+00
 ETOT  2  -8.1056488224341    -1.399E-02 6.575E-10 7.972E-02
 ETOT  3  -8.1059387880054    -2.900E-04 2.322E-06 1.637E-03
 ETOT  4  -8.1059431442662    -4.356E-06 1.373E-08 3.467E-05
 ETOT  5  -8.1059432217117    -7.745E-08 4.395E-10 1.738E-07
 ETOT  6  -8.1059432220115    -2.998E-10 1.564E-12 1.210E-08
 ETOT  7  -8.1059432220389    -2.742E-11 6.115E-14 3.094E-10
 ETOT  8  -8.1059432220395    -6.253E-13 1.012E-15 8.944E-12
 ETOT  9  -8.1059432220396    -1.421E-14 2.231E-17 2.183E-13
 ETOT 10  -8.1059432220396    -7.105E-15 2.839E-19 1.998E-14
 ETOT 11  -8.1059432220396     3.553E-15 9.034E-20 8.154E-16
 ETOT 12  -8.1059432220396    -5.329E-15 2.029E-21 3.313E-17

 Cartesian components of stress tensor (hartree/bohr^3)
  sigma(1 1)=  5.15236096E-05  sigma(3 2)=  0.00000000E+00
  sigma(2 2)=  5.15236096E-05  sigma(3 1)=  0.00000000E+00
  sigma(3 3)=  5.15236096E-05  sigma(2 1)=  0.00000000E+00


 scprqt:  WARNING -
  nstep=   12 was not enough SCF cycles to converge;
  maximum residual=  2.029E-21 exceeds tolwfr=  1.000E-22

================================================================================

 ----iterations are completed or convergence reached----

 Mean square residual over all n,k,spin=   6.0948E-22; max=  2.0292E-21
  -0.2500  0.5000  0.0000    1  2.02920E-21 kpt; spin; max resid(k); each band:
  2.03E-21 4.52E-22 1.33E-21 3.05E-22
  -0.2500  0.0000  0.0000    1  4.57294E-22 kpt; spin; max resid(k); each band:
  2.85E-22 4.57E-22 1.05E-23 1.04E-23
 reduced coordinates (array xred) for    2 atoms
       0.000000000000      0.000000000000      0.000000000000
       0.250000000000      0.250000000000      0.250000000000
 rms dE/dt=  0.0000E+00; max dE/dt=  0.0000E+00; dE/dt below (all hartree)
    1       0.000000000000      0.000000000000      0.000000000000
    2       0.000000000000      0.000000000000      0.000000000000

 cartesian coordinates (angstrom) at end:
    1      0.00000000000000     0.00000000000000     0.00000000000000
    2      1.40231960276350     1.40231960276350     1.40231960276350

 cartesian forces (hartree/bohr) at end:
    1     -0.00000000000000    -0.00000000000000    -0.00000000000000
    2     -0.00000000000000    -0.00000000000000    -0.00000000000000
 frms,max,avg= 0.0000000E+00 0.0000000E+00   0.000E+00  0.000E+00  0.000E+00 h/b

 cartesian forces (eV/Angstrom) at end:
    1     -0.00000000000000    -0.00000000000000    -0.00000000000000
    2     -0.00000000000000    -0.00000000000000    -0.00000000000000
 frms,max,avg= 0.0000000E+00 0.0000000E+00   0.000E+00  0.000E+00  0.000E+00 e/A
 length scales= 10.600000000000 10.600000000000 10.600000000000 bohr
              =  5.609278411054  5.609278411054  5.609278411054 angstroms
 prteigrs : about to open file t98o_DS1_EIG
 Fermi (or HOMO) energy (hartree) =   0.01498   Average Vxc (hartree)=  -0.32886
 Eigenvalues (hartree) for nkpt=   2  k points:
 kpt#   1, nband=  4, wtk=  0.75000, kpt= -0.2500  0.5000  0.0000 (reduced coord)
  -0.31421  -0.17194  -0.07333  -0.03770
 kpt#   2, nband=  4, wtk=  0.25000, kpt= -0.2500  0.0000  0.0000 (reduced coord)
  -0.37361  -0.09480   0.01498   0.01498
 Total charge density [el/Bohr^3]
,     Maximum=    6.5282E-02  at reduced coord.    0.1000    0.2000    0.6000
,Next maximum=    6.5282E-02  at reduced coord.    0.2000    0.1000    0.6000
,     Minimum=    1.6592E-03  at reduced coord.    0.8000    0.7000    0.7000
,Next minimum=    1.6592E-03  at reduced coord.    0.7000    0.8000    0.7000
,  Integrated=    8.0000E+00

--------------------------------------------------------------------------------
 Components of total free energy (in Hartree) :

    Kinetic energy  =  2.71389580593842E+00
    Hartree energy  =  4.27271460566350E-01
    XC energy       = -2.28628185084208E+00
    Ewald energy    = -8.48789573682593E+00
    PspCore energy  =  1.23030629308481E+00
    Loc. psp. energy= -1.78340398373075E+00
    NL   psp  energy=  8.01647897696154E-02
    >>>>>>>>> Etotal= -8.10594322203957E+00

 Other information on the energy :
    Total energy(eV)= -2.20573932562284E+02 ; Band energy (Ha)=  -1.1150078230E+00
--------------------------------------------------------------------------------

 Cartesian components of stress tensor (hartree/bohr^3)
  sigma(1 1)=  5.15236096E-05  sigma(3 2)=  0.00000000E+00
  sigma(2 2)=  5.15236096E-05  sigma(3 1)=  0.00000000E+00
  sigma(3 3)=  5.15236096E-05  sigma(2 1)=  0.00000000E+00

-Cartesian components of stress tensor (GPa)         [Pressure= -1.5159E+00 GPa]
- sigma(1 1)=  1.51587668E+00  sigma(3 2)=  0.00000000E+00
- sigma(2 2)=  1.51587668E+00  sigma(3 1)=  0.00000000E+00
- sigma(3 3)=  1.51587668E+00  sigma(2 1)=  0.00000000E+00

================================================================================
== DATASET  2 ==================================================================
-   nproc =    1

 mkfilename : getwfk/=0, take file _WFK from output of DATASET   1.

 mkfilename : getddk/=0, take file _1WF from output of DATASET   2.

 Exchange-correlation functional for the present dataset will be:
  LDA: old Teter (4/91) fit to Ceperley-Alder data - ixc=3

 Real(R)+Recip(G) space primitive vectors, cartesian coordinates (Bohr,Bohr^-1):
 R(1)=  0.0000000  5.3000000  5.3000000  G(1)= -0.0943396  0.0943396  0.0943396
 R(2)=  5.3000000  0.0000000  5.3000000  G(2)=  0.0943396 -0.0943396  0.0943396
 R(3)=  5.3000000  5.3000000  0.0000000  G(3)=  0.0943396  0.0943396 -0.0943396
 Unit cell volume ucvol=  2.9775400E+02 bohr^3
 Angles (23,13,12)=  6.00000000E+01  6.00000000E+01  6.00000000E+01 degrees
 setup1 : take into account q-point for computing boxcut.

 getcut: wavevector=  0.0000  0.0000  0.0000  ngfft=   8   8   8
         ecut(hartree)=      1.400   => boxcut(ratio)=   2.00387

--- Pseudopotential description ------------------------------------------------
- pspini: atom type   1  psp file is /data/ABINIT/testf_gcc47/trunk_7.10.4-training/tests/Psps_for_tests/31ga.SGS_mod
- pspatm: opening atomic psp file    /data/ABINIT/testf_gcc47/trunk_7.10.4-training/tests/Psps_for_tests/31ga.SGS_mod
-   pspot from prpsa - Bachelet or Stumpf table ( !! OLD, only for tests )
- 31.00000   3.00000    900101                znucl, zion, pspdat
    5    3    2    2       267   0.00000      pspcod,pspxc,lmax,lloc,mmax,r2well
    3.225807E-04    4.879035E-02              r1 and al (Hamman grid)
    0   0.000   0.000    1   1.2712000        l,e99.0,e99.9,nproj,rcpsp
   0.00000000   0.00000000   0.00000000   0.00000000     rms, ekb1, ekb2, epsatm
    1   0.000   0.000    1   1.4316000        l,e99.0,e99.9,nproj,rcpsp
   0.00000000   0.00000000   0.00000000   0.00000000     rms, ekb1, ekb2, epsatm
    2   0.000   0.000    0   1.4889000        l,e99.0,e99.9,nproj,rcpsp
   0.00000000   0.00000000   0.00000000   0.00000000     rms, ekb1, ekb2, epsatm
    0.00000000000000    0.00000000000000    0.00000000000000   rchrg,fchrg,qchrg
 pspatm: epsatm=   19.73612150
         --- l  ekb(1:nproj) -->
             0    9.397339
             1   -0.525725
 pspatm: atomic psp has been read  and splines computed

- pspini: atom type   2  psp file is /data/ABINIT/testf_gcc47/trunk_7.10.4-training/tests/Psps_for_tests/33as.SGS_mod
- pspatm: opening atomic psp file    /data/ABINIT/testf_gcc47/trunk_7.10.4-training/tests/Psps_for_tests/33as.SGS_mod
-   pspot from prpsa - Bachelet or Stumpf table ( !! OLD, for testing purposes only )
- 33.00000   5.00000    900101                znucl, zion, pspdat
    5    3    2    2       269   0.00000      pspcod,pspxc,lmax,lloc,mmax,r2well
    3.030304E-04    4.879035E-02              r1 and al (Hamman grid)
    0   0.000   0.000    1   1.0000000        l,e99.0,e99.9,nproj,rcpsp
   0.00000000   0.00000000   0.00000000   0.00000000     rms, ekb1, ekb2, epsatm
    1   0.000   0.000    1   1.0000000        l,e99.0,e99.9,nproj,rcpsp
   0.00000000   0.00000000   0.00000000   0.00000000     rms, ekb1, ekb2, epsatm
    2   0.000   0.000    0   1.0000000        l,e99.0,e99.9,nproj,rcpsp
   0.00000000   0.00000000   0.00000000   0.00000000     rms, ekb1, ekb2, epsatm
    0.00000000000000    0.00000000000000    0.00000000000000   rchrg,fchrg,qchrg
 pspatm: epsatm=   26.05495600
         --- l  ekb(1:nproj) -->
             0    9.019459
             1   -0.908274
 pspatm: atomic psp has been read  and splines computed

--------------------------------------------------------------------------------

-inwffil : will read wavefunctions from disk file t98o_DS1_WFK
- newkpt: read input wf with ikpt,npw=   1      24, make ikpt,npw=   1      24
- newkpt: read input wf with ikpt,npw=   2      24, make ikpt,npw=   2      24
- newkpt: read input wf with ikpt,npw=   3      24, make ikpt,npw=   3      24
- newkpt: read input wf with ikpt,npw=   4      18, make ikpt,npw=   4      18
- newkpt: read input wf with ikpt,npw=   5      24, make ikpt,npw=   5      24
- newkpt: read input wf with ikpt,npw=   6      24, make ikpt,npw=   6      24
- newkpt: read input wf with ikpt,npw=   7      24, make ikpt,npw=   7      24
- newkpt: read input wf with ikpt,npw=   8      24, make ikpt,npw=   8      24
- newkpt: read input wf with ikpt,npw=   9      24, make ikpt,npw=   9      24
- newkpt: read input wf with ikpt,npw=  10      18, make ikpt,npw=  10      18
- newkpt: read input wf with ikpt,npw=  11      24, make ikpt,npw=  11      24
- newkpt: read input wf with ikpt,npw=  12      24, make ikpt,npw=  12      24
- newkpt: read input wf with ikpt,npw=  13      18, make ikpt,npw=  13      18
- newkpt: read input wf with ikpt,npw=  14      18, make ikpt,npw=  14      18
- newkpt: read input wf with ikpt,npw=  15      24, make ikpt,npw=  15      24
- newkpt: read input wf with ikpt,npw=  16      24, make ikpt,npw=  16      24
- newkpt: read input wf with ikpt,npw=  17      18, make ikpt,npw=  17      18
- newkpt: read input wf with ikpt,npw=  18      18, make ikpt,npw=  18      18
- newkpt: read input wf with ikpt,npw=  19      24, make ikpt,npw=  19      24
- newkpt: read input wf with ikpt,npw=  20      24, make ikpt,npw=  20      24
- newkpt: read input wf with ikpt,npw=  21      24, make ikpt,npw=  21      24
- newkpt: read input wf with ikpt,npw=  22      24, make ikpt,npw=  22      24
- newkpt: read input wf with ikpt,npw=  23      24, make ikpt,npw=  23      24
- newkpt: read input wf with ikpt,npw=  24      24, make ikpt,npw=  24      24
- newkpt: read input wf with ikpt,npw=  25      24, make ikpt,npw=  25      24
- newkpt: read input wf with ikpt,npw=  26      18, make ikpt,npw=  26      18
- newkpt: read input wf with ikpt,npw=  27      24, make ikpt,npw=  27      24
- newkpt: read input wf with ikpt,npw=  28      24, make ikpt,npw=  28      24
- newkpt: read input wf with ikpt,npw=  29      24, make ikpt,npw=  29      24
- newkpt: read input wf with ikpt,npw=  30      24, make ikpt,npw=  30      24
- newkpt: read input wf with ikpt,npw=  31      24, make ikpt,npw=  31      24
- newkpt: read input wf with ikpt,npw=  32      18, make ikpt,npw=  32      18


 ==>  initialize data related to q vector <== 

 The list of irreducible perturbations for this q vector is:
    1)    idir= 1    ipert=   3

================================================================================

--------------------------------------------------------------------------------
 Perturbation wavevector (in red.coord.)   0.000000  0.000000  0.000000
 Perturbation : derivative vs k along direction   1
 The set of symmetries contains only one element for this perturbation.
 symkpt : not enough symmetry to change the number of k points.

--------------------------------------------------------------------------------

-inwffil : will read wavefunctions from disk file t98o_DS1_WFK
- newkpt: read input wf with ikpt,npw=   1      24, make ikpt,npw=   1      24
- newkpt: read input wf with ikpt,npw=   2      24, make ikpt,npw=   2      24
- newkpt: read input wf with ikpt,npw=   3      24, make ikpt,npw=   3      24
- newkpt: read input wf with ikpt,npw=   4      18, make ikpt,npw=   4      18
- newkpt: read input wf with ikpt,npw=   5      24, make ikpt,npw=   5      24
- newkpt: read input wf with ikpt,npw=   6      24, make ikpt,npw=   6      24
- newkpt: read input wf with ikpt,npw=   7      24, make ikpt,npw=   7      24
- newkpt: read input wf with ikpt,npw=   8      24, make ikpt,npw=   8      24
- newkpt: read input wf with ikpt,npw=   9      24, make ikpt,npw=   9      24
- newkpt: read input wf with ikpt,npw=  10      18, make ikpt,npw=  10      18
- newkpt: read input wf with ikpt,npw=  11      24, make ikpt,npw=  11      24
- newkpt: read input wf with ikpt,npw=  12      24, make ikpt,npw=  12      24
- newkpt: read input wf with ikpt,npw=  13      18, make ikpt,npw=  13      18
- newkpt: read input wf with ikpt,npw=  14      18, make ikpt,npw=  14      18
- newkpt: read input wf with ikpt,npw=  15      24, make ikpt,npw=  15      24
- newkpt: read input wf with ikpt,npw=  16      24, make ikpt,npw=  16      24
- newkpt: read input wf with ikpt,npw=  17      18, make ikpt,npw=  17      18
- newkpt: read input wf with ikpt,npw=  18      18, make ikpt,npw=  18      18
- newkpt: read input wf with ikpt,npw=  19      24, make ikpt,npw=  19      24
- newkpt: read input wf with ikpt,npw=  20      24, make ikpt,npw=  20      24
- newkpt: read input wf with ikpt,npw=  21      24, make ikpt,npw=  21      24
- newkpt: read input wf with ikpt,npw=  22      24, make ikpt,npw=  22      24
- newkpt: read input wf with ikpt,npw=  23      24, make ikpt,npw=  23      24
- newkpt: read input wf with ikpt,npw=  24      24, make ikpt,npw=  24      24
- newkpt: read input wf with ikpt,npw=  25      24, make ikpt,npw=  25      24
- newkpt: read input wf with ikpt,npw=  26      18, make ikpt,npw=  26      18
- newkpt: read input wf with ikpt,npw=  27      24, make ikpt,npw=  27      24
- newkpt: read input wf with ikpt,npw=  28      24, make ikpt,npw=  28      24
- newkpt: read input wf with ikpt,npw=  29      24, make ikpt,npw=  29      24
- newkpt: read input wf with ikpt,npw=  30      24, make ikpt,npw=  30      24
- newkpt: read input wf with ikpt,npw=  31      24, make ikpt,npw=  31      24
- newkpt: read input wf with ikpt,npw=  32      18, make ikpt,npw=  32      18

--------------------------------------------------------------------------------

-inwffil : will read wavefunctions from disk file t98o_DS1_WFK
- newkpt: read input wf with ikpt,npw=   1      24, make ikpt,npw=   1      24
- newkpt: read input wf with ikpt,npw=   2      24, make ikpt,npw=   2      24
- newkpt: read input wf with ikpt,npw=   3      24, make ikpt,npw=   3      24
- newkpt: read input wf with ikpt,npw=   4      18, make ikpt,npw=   4      18
- newkpt: read input wf with ikpt,npw=   5      24, make ikpt,npw=   5      24
- newkpt: read input wf with ikpt,npw=   6      24, make ikpt,npw=   6      24
- newkpt: read input wf with ikpt,npw=   7      24, make ikpt,npw=   7      24
- newkpt: read input wf with ikpt,npw=   8      24, make ikpt,npw=   8      24
- newkpt: read input wf with ikpt,npw=   9      24, make ikpt,npw=   9      24
- newkpt: read input wf with ikpt,npw=  10      18, make ikpt,npw=  10      18
- newkpt: read input wf with ikpt,npw=  11      24, make ikpt,npw=  11      24
- newkpt: read input wf with ikpt,npw=  12      24, make ikpt,npw=  12      24
- newkpt: read input wf with ikpt,npw=  13      18, make ikpt,npw=  13      18
- newkpt: read input wf with ikpt,npw=  14      18, make ikpt,npw=  14      18
- newkpt: read input wf with ikpt,npw=  15      24, make ikpt,npw=  15      24
- newkpt: read input wf with ikpt,npw=  16      24, make ikpt,npw=  16      24
- newkpt: read input wf with ikpt,npw=  17      18, make ikpt,npw=  17      18
- newkpt: read input wf with ikpt,npw=  18      18, make ikpt,npw=  18      18
- newkpt: read input wf with ikpt,npw=  19      24, make ikpt,npw=  19      24
- newkpt: read input wf with ikpt,npw=  20      24, make ikpt,npw=  20      24
- newkpt: read input wf with ikpt,npw=  21      24, make ikpt,npw=  21      24
- newkpt: read input wf with ikpt,npw=  22      24, make ikpt,npw=  22      24
- newkpt: read input wf with ikpt,npw=  23      24, make ikpt,npw=  23      24
- newkpt: read input wf with ikpt,npw=  24      24, make ikpt,npw=  24      24
- newkpt: read input wf with ikpt,npw=  25      24, make ikpt,npw=  25      24
- newkpt: read input wf with ikpt,npw=  26      18, make ikpt,npw=  26      18
- newkpt: read input wf with ikpt,npw=  27      24, make ikpt,npw=  27      24
- newkpt: read input wf with ikpt,npw=  28      24, make ikpt,npw=  28      24
- newkpt: read input wf with ikpt,npw=  29      24, make ikpt,npw=  29      24
- newkpt: read input wf with ikpt,npw=  30      24, make ikpt,npw=  30      24
- newkpt: read input wf with ikpt,npw=  31      24, make ikpt,npw=  31      24
- newkpt: read input wf with ikpt,npw=  32      18, make ikpt,npw=  32      18

 Initialisation of the first-order wave-functions :
  ireadwf=   0
P newkpt: treating      4 bands with npw=      24 for ikpt=   1 by node    0
P newkpt: treating      4 bands with npw=      24 for ikpt=   2 by node    0
P newkpt: treating      4 bands with npw=      24 for ikpt=   3 by node    0
P newkpt: treating      4 bands with npw=      18 for ikpt=   4 by node    0
P newkpt: treating      4 bands with npw=      24 for ikpt=   5 by node    0
P newkpt: treating      4 bands with npw=      24 for ikpt=   6 by node    0
P newkpt: treating      4 bands with npw=      24 for ikpt=   7 by node    0
P newkpt: treating      4 bands with npw=      24 for ikpt=   8 by node    0
P newkpt: treating      4 bands with npw=      24 for ikpt=   9 by node    0
P newkpt: treating      4 bands with npw=      18 for ikpt=  10 by node    0
P newkpt: treating      4 bands with npw=      24 for ikpt=  11 by node    0
P newkpt: treating      4 bands with npw=      24 for ikpt=  12 by node    0
P newkpt: treating      4 bands with npw=      18 for ikpt=  13 by node    0
P newkpt: treating      4 bands with npw=      18 for ikpt=  14 by node    0
P newkpt: treating      4 bands with npw=      24 for ikpt=  15 by node    0
P newkpt: treating      4 bands with npw=      24 for ikpt=  16 by node    0
P newkpt: treating      4 bands with npw=      18 for ikpt=  17 by node    0
P newkpt: treating      4 bands with npw=      18 for ikpt=  18 by node    0
P newkpt: treating      4 bands with npw=      24 for ikpt=  19 by node    0
P newkpt: treating      4 bands with npw=      24 for ikpt=  20 by node    0
P newkpt: treating      4 bands with npw=      24 for ikpt=  21 by node    0
P newkpt: treating      4 bands with npw=      24 for ikpt=  22 by node    0
P newkpt: treating      4 bands with npw=      24 for ikpt=  23 by node    0
P newkpt: treating      4 bands with npw=      24 for ikpt=  24 by node    0
P newkpt: treating      4 bands with npw=      24 for ikpt=  25 by node    0
P newkpt: treating      4 bands with npw=      18 for ikpt=  26 by node    0
P newkpt: treating      4 bands with npw=      24 for ikpt=  27 by node    0
P newkpt: treating      4 bands with npw=      24 for ikpt=  28 by node    0
P newkpt: treating      4 bands with npw=      24 for ikpt=  29 by node    0
P newkpt: treating      4 bands with npw=      24 for ikpt=  30 by node    0
P newkpt: treating      4 bands with npw=      24 for ikpt=  31 by node    0
P newkpt: treating      4 bands with npw=      18 for ikpt=  32 by node    0


     iter   2DEtotal(Ha)        deltaE(Ha) residm    vres2
-ETOT  1  -20.504675225950     -2.050E+01 4.568E-02 0.000E+00
 ETOT  2  -20.507368579385     -2.693E-03 8.769E-06 0.000E+00
 ETOT  3  -20.507370293015     -1.714E-06 1.994E-09 0.000E+00
 ETOT  4  -20.507370293146     -1.308E-10 1.154E-13 0.000E+00
 ETOT  5  -20.507370293146     -1.776E-14 6.563E-17 0.000E+00
 ETOT  6  -20.507370293146     -2.132E-14 1.519E-20 0.000E+00
 ETOT  7  -20.507370293146      3.553E-15 9.300E-23 0.000E+00

 At SCF step    7   max residual=  9.30E-23 < tolwfr=  1.00E-22 =>converged.
================================================================================

 ----iterations are completed or convergence reached----

 Mean square residual over all n,k,spin=   2.7152E-23; max=  9.3001E-23
  -0.2500  0.5000  0.0000    1  9.29973E-23 kpt; spin; max resid(k); each band:
  9.30E-23 3.95E-23 1.23E-23 4.70E-23
   0.5000 -0.2500  0.0000    1  1.01576E-23 kpt; spin; max resid(k); each band:
  1.02E-23 7.42E-24 2.75E-24 6.16E-24
  -0.2500 -0.2500  0.2500    1  3.21623E-23 kpt; spin; max resid(k); each band:
  7.72E-24 1.07E-23 2.90E-23 3.22E-23
  -0.2500  0.0000  0.0000    1  2.72857E-23 kpt; spin; max resid(k); each band:
  1.27E-23 2.73E-23 3.98E-24 3.95E-24
   0.5000  0.2500  0.0000    1  1.01562E-23 kpt; spin; max resid(k); each band:
  1.02E-23 7.42E-24 2.75E-24 6.16E-24
  -0.2500  0.2500  0.2500    1  1.01579E-23 kpt; spin; max resid(k); each band:
  1.02E-23 7.42E-24 2.75E-24 6.17E-24
   0.2500  0.5000  0.0000    1  9.29995E-23 kpt; spin; max resid(k); each band:
  9.30E-23 3.95E-23 1.23E-23 4.70E-23
   0.5000  0.5000  0.2500    1  3.21623E-23 kpt; spin; max resid(k); each band:
  7.72E-24 1.07E-23 2.90E-23 3.22E-23
  -0.2500  0.5000  0.5000    1  9.30010E-23 kpt; spin; max resid(k); each band:
  9.30E-23 3.96E-23 1.23E-23 4.07E-23
   0.0000 -0.2500  0.0000    1  6.29000E-23 kpt; spin; max resid(k); each band:
  5.83E-23 6.29E-23 1.97E-23 2.44E-23
   0.2500 -0.2500  0.2500    1  3.21632E-23 kpt; spin; max resid(k); each band:
  7.72E-24 1.07E-23 2.90E-23 3.22E-23
   0.5000 -0.2500  0.5000    1  3.21628E-23 kpt; spin; max resid(k); each band:
  7.72E-24 1.07E-23 2.90E-23 3.22E-23
  -0.2500 -0.2500 -0.2500    1  7.46873E-23 kpt; spin; max resid(k); each band:
  5.83E-23 6.29E-23 1.00E-23 7.47E-23
   0.2500  0.0000  0.0000    1  2.72864E-23 kpt; spin; max resid(k); each band:
  1.27E-23 2.73E-23 3.98E-24 3.95E-24
   0.5000  0.0000  0.2500    1  1.01556E-23 kpt; spin; max resid(k); each band:
  1.02E-23 7.42E-24 2.75E-24 6.17E-24
  -0.2500  0.0000  0.5000    1  9.29992E-23 kpt; spin; max resid(k); each band:
  9.30E-23 3.96E-23 1.23E-23 4.63E-23
   0.0000  0.2500  0.0000    1  6.28998E-23 kpt; spin; max resid(k); each band:
  5.83E-23 6.29E-23 1.97E-23 2.44E-23
   0.2500  0.2500  0.2500    1  7.46872E-23 kpt; spin; max resid(k); each band:
  5.83E-23 6.29E-23 1.00E-23 7.47E-23
   0.5000  0.2500  0.5000    1  3.21632E-23 kpt; spin; max resid(k); each band:
  7.72E-24 1.07E-23 2.90E-23 3.22E-23
  -0.2500  0.2500 -0.2500    1  3.21623E-23 kpt; spin; max resid(k); each band:
  7.72E-24 1.07E-23 2.90E-23 3.22E-23
   0.0000  0.5000  0.2500    1  3.21595E-23 kpt; spin; max resid(k); each band:
  7.72E-24 1.07E-23 2.90E-23 3.22E-23
   0.2500  0.5000  0.5000    1  9.29997E-23 kpt; spin; max resid(k); each band:
  9.30E-23 3.95E-23 1.23E-23 4.07E-23
   0.5000  0.5000 -0.2500    1  3.21602E-23 kpt; spin; max resid(k); each band:
  7.72E-24 1.07E-23 2.90E-23 3.22E-23
   0.0000 -0.2500  0.5000    1  3.21623E-23 kpt; spin; max resid(k); each band:
  7.72E-24 1.07E-23 2.90E-23 3.22E-23
   0.2500 -0.2500 -0.2500    1  1.01576E-23 kpt; spin; max resid(k); each band:
  1.02E-23 7.42E-24 2.75E-24 6.17E-24
   0.0000  0.0000  0.2500    1  6.29010E-23 kpt; spin; max resid(k); each band:
  5.83E-23 6.29E-23 3.31E-23 3.89E-23
   0.2500  0.0000  0.5000    1  9.30007E-23 kpt; spin; max resid(k); each band:
  9.30E-23 3.96E-23 1.23E-23 4.63E-23
   0.5000  0.0000 -0.2500    1  1.01564E-23 kpt; spin; max resid(k); each band:
  1.02E-23 7.42E-24 2.75E-24 6.17E-24
   0.0000  0.2500  0.5000    1  3.21620E-23 kpt; spin; max resid(k); each band:
  7.72E-24 1.07E-23 2.90E-23 3.22E-23
   0.2500  0.2500 -0.2500    1  3.21633E-23 kpt; spin; max resid(k); each band:
  7.72E-24 1.07E-23 2.90E-23 3.22E-23
   0.0000  0.5000 -0.2500    1  3.21627E-23 kpt; spin; max resid(k); each band:
  7.72E-24 1.07E-23 2.90E-23 3.22E-23
   0.0000  0.0000 -0.2500    1  6.29012E-23 kpt; spin; max resid(k); each band:
  5.83E-23 6.29E-23 3.31E-23 3.89E-23
 loper3 : ek2=    1.6865112540E+01
          f-sum rule ratio=    2.2047810438E+00 (note : ecutsm/=0)
 prteigrs : about to open file t98_1WF1_EIG
 Expectation of eigenvalue derivatives (hartree) for nkpt=  32  k points:
  (in case of degenerate eigenvalues, averaged derivative)
 kpt#   1, nband=  4, wtk=  0.03125, kpt= -0.2500  0.5000  0.0000 (reduced coord)
  -0.08279  -0.12068   0.33119   0.23849
 kpt#   2, nband=  4, wtk=  0.03125, kpt=  0.5000 -0.2500  0.0000 (reduced coord)
  -0.18506   0.29413   0.20904  -0.07083
 kpt#   3, nband=  4, wtk=  0.03125, kpt= -0.2500 -0.2500  0.2500 (reduced coord)
  -0.13392   0.08673   0.27011   0.08383
 kpt#   4, nband=  4, wtk=  0.03125, kpt= -0.2500  0.0000  0.0000 (reduced coord)
  -0.21917   0.68199   0.12679   0.12679
 kpt#   5, nband=  4, wtk=  0.03125, kpt=  0.5000  0.2500  0.0000 (reduced coord)
   0.18506  -0.29413  -0.20904   0.07083
 kpt#   6, nband=  4, wtk=  0.03125, kpt= -0.2500  0.2500  0.2500 (reduced coord)
  -0.18506   0.29413   0.20904  -0.07083
 kpt#   7, nband=  4, wtk=  0.03125, kpt=  0.2500  0.5000  0.0000 (reduced coord)
   0.08279   0.12068  -0.33119  -0.23849
 kpt#   8, nband=  4, wtk=  0.03125, kpt=  0.5000  0.5000  0.2500 (reduced coord)
   0.13392  -0.08673  -0.27011  -0.08383
 kpt#   9, nband=  4, wtk=  0.03125, kpt= -0.2500  0.5000  0.5000 (reduced coord)
   0.08279   0.12068  -0.33119  -0.23849
 kpt#  10, nband=  4, wtk=  0.03125, kpt=  0.0000 -0.2500  0.0000 (reduced coord)
   0.07306  -0.22733  -0.04226  -0.04226
 kpt#  11, nband=  4, wtk=  0.03125, kpt=  0.2500 -0.2500  0.2500 (reduced coord)
   0.13392  -0.08673  -0.27011  -0.08383
 kpt#  12, nband=  4, wtk=  0.03125, kpt=  0.5000 -0.2500  0.5000 (reduced coord)
  -0.13392   0.08673   0.27011   0.08383
 kpt#  13, nband=  4, wtk=  0.03125, kpt= -0.2500 -0.2500 -0.2500 (reduced coord)
  -0.07306   0.22733   0.04226   0.04226
 kpt#  14, nband=  4, wtk=  0.03125, kpt=  0.2500  0.0000  0.0000 (reduced coord)
   0.21917  -0.68199  -0.12679  -0.12679
 kpt#  15, nband=  4, wtk=  0.03125, kpt=  0.5000  0.0000  0.2500 (reduced coord)
   0.18506  -0.29413  -0.20904   0.07083
 kpt#  16, nband=  4, wtk=  0.03125, kpt= -0.2500  0.0000  0.5000 (reduced coord)
  -0.08279  -0.12068   0.33119   0.23849
 kpt#  17, nband=  4, wtk=  0.03125, kpt=  0.0000  0.2500  0.0000 (reduced coord)
  -0.07306   0.22733   0.04226   0.04226
 kpt#  18, nband=  4, wtk=  0.03125, kpt=  0.2500  0.2500  0.2500 (reduced coord)
   0.07306  -0.22733  -0.04226  -0.04226
 kpt#  19, nband=  4, wtk=  0.03125, kpt=  0.5000  0.2500  0.5000 (reduced coord)
   0.13392  -0.08673  -0.27011  -0.08383
 kpt#  20, nband=  4, wtk=  0.03125, kpt= -0.2500  0.2500 -0.2500 (reduced coord)
  -0.13392   0.08673   0.27011   0.08383
 kpt#  21, nband=  4, wtk=  0.03125, kpt=  0.0000  0.5000  0.2500 (reduced coord)
  -0.13392   0.08673   0.27011   0.08383
 kpt#  22, nband=  4, wtk=  0.03125, kpt=  0.2500  0.5000  0.5000 (reduced coord)
  -0.08279  -0.12068   0.33119   0.23849
 kpt#  23, nband=  4, wtk=  0.03125, kpt=  0.5000  0.5000 -0.2500 (reduced coord)
  -0.13392   0.08673   0.27011   0.08383
 kpt#  24, nband=  4, wtk=  0.03125, kpt=  0.0000 -0.2500  0.5000 (reduced coord)
   0.13392  -0.08673  -0.27011  -0.08383
 kpt#  25, nband=  4, wtk=  0.03125, kpt=  0.2500 -0.2500 -0.2500 (reduced coord)
   0.18506  -0.29413  -0.20904   0.07083
 kpt#  26, nband=  4, wtk=  0.03125, kpt=  0.0000  0.0000  0.2500 (reduced coord)
  -0.07306   0.22733   0.04226   0.04226
 kpt#  27, nband=  4, wtk=  0.03125, kpt=  0.2500  0.0000  0.5000 (reduced coord)
   0.08279   0.12068  -0.33119  -0.23849
 kpt#  28, nband=  4, wtk=  0.03125, kpt=  0.5000  0.0000 -0.2500 (reduced coord)
  -0.18506   0.29413   0.20904  -0.07083
 kpt#  29, nband=  4, wtk=  0.03125, kpt=  0.0000  0.2500  0.5000 (reduced coord)
  -0.13392   0.08673   0.27011   0.08383
 kpt#  30, nband=  4, wtk=  0.03125, kpt=  0.2500  0.2500 -0.2500 (reduced coord)
   0.13392  -0.08673  -0.27011  -0.08383
 kpt#  31, nband=  4, wtk=  0.03125, kpt=  0.0000  0.5000 -0.2500 (reduced coord)
   0.13392  -0.08673  -0.27011  -0.08383
 kpt#  32, nband=  4, wtk=  0.03125, kpt=  0.0000  0.0000 -0.2500 (reduced coord)
   0.07306  -0.22733  -0.04226  -0.04226

 Eight components of 2nd-order total energy (hartree) are
 1,2,3: 0th-order hamiltonian combined with 1st-order wavefunctions
     kin0=   2.94873659E+01 eigvalue=   1.38004878E+00  local=  -1.42415373E+01
 4,5,6: 1st-order hamiltonian combined with 1st and 0th-order wfs
     kin1=  -3.71838804E+01  Hartree=   0.00000000E+00     xc=   0.00000000E+00
 7,8,9: eventually, occupation + non-local contributions
    edocc=   0.00000000E+00     enl0=   3.88149292E+00   enl1=  -3.83086016E+00
 1-9 gives the relaxation energy (to be shifted if some occ is /=2.0)
   erelax=  -2.05073703E+01
  No Ewald or frozen-wf contrib.: the relaxation energy is the total one
 2DEtotal=   -0.2050737029E+02 Ha. Also 2DEtotal=   -0.558033925006E+03 eV
    (  non-var. 2DEtotal :   -2.0507370293E+01 Ha)
================================================================================

 ---- first-order wavefunction calculations are completed ----


 Total localisation tensor (bohr^2) in cartesian coordinates
  WARNING : still subject to testing - especially symmetries.
      direction              matrix element
   alpha     beta       real part   imaginary part
     1        1       0.0000000000    0.0000000000
     1        2       0.0000000000    0.0000000000
     1        3       0.0000000000    0.0000000000
     2        1       0.0000000000    0.0000000000
     2        2       1.8127804518    0.0000000000
     2        3       1.8127804518    0.0000000000
     3        1       0.0000000000    0.0000000000
     3        2       1.8127804518    0.0000000000
     3        3       1.8127804518    0.0000000000

 WARNING : Localization tensor calculation (this does not apply to other properties).
  Not all d/dk perturbations were computed. So the localization tensor in reciprocal space is incomplete,
  and transformation to cartesian coordinates may be wrong.

 respfn : d/dk was computed, but no 2DTE, so no DDB output.

================================================================================
== DATASET  3 ==================================================================
-   nproc =    1

 mkfilename : getwfk/=0, take file _WFK from output of DATASET   1.

 mkfilename : getddk/=0, take file _1WF from output of DATASET   2.

 Exchange-correlation functional for the present dataset will be:
  LDA: old Teter (4/91) fit to Ceperley-Alder data - ixc=3

 Real(R)+Recip(G) space primitive vectors, cartesian coordinates (Bohr,Bohr^-1):
 R(1)=  0.0000000  5.3000000  5.3000000  G(1)= -0.0943396  0.0943396  0.0943396
 R(2)=  5.3000000  0.0000000  5.3000000  G(2)=  0.0943396 -0.0943396  0.0943396
 R(3)=  5.3000000  5.3000000  0.0000000  G(3)=  0.0943396  0.0943396 -0.0943396
 Unit cell volume ucvol=  2.9775400E+02 bohr^3
 Angles (23,13,12)=  6.00000000E+01  6.00000000E+01  6.00000000E+01 degrees
 setup1 : take into account q-point for computing boxcut.

 getcut: wavevector=  0.0000  0.0000  0.0000  ngfft=   8   8   8
         ecut(hartree)=      1.400   => boxcut(ratio)=   2.00387
--------------------------------------------------------------------------------

-inwffil : will read wavefunctions from disk file t98o_DS1_WFK
- newkpt: read input wf with ikpt,npw=   1      24, make ikpt,npw=   1      24
- newkpt: read input wf with ikpt,npw=   2      24, make ikpt,npw=   2      24
- newkpt: read input wf with ikpt,npw=   3      24, make ikpt,npw=   3      24
- newkpt: read input wf with ikpt,npw=   4      18, make ikpt,npw=   4      18
- newkpt: read input wf with ikpt,npw=   5      24, make ikpt,npw=   5      24
- newkpt: read input wf with ikpt,npw=   6      24, make ikpt,npw=   6      24
- newkpt: read input wf with ikpt,npw=   7      24, make ikpt,npw=   7      24
- newkpt: read input wf with ikpt,npw=   8      24, make ikpt,npw=   8      24
- newkpt: read input wf with ikpt,npw=   9      24, make ikpt,npw=   9      24
- newkpt: read input wf with ikpt,npw=  10      18, make ikpt,npw=  10      18
- newkpt: read input wf with ikpt,npw=  11      24, make ikpt,npw=  11      24
- newkpt: read input wf with ikpt,npw=  12      24, make ikpt,npw=  12      24
- newkpt: read input wf with ikpt,npw=  13      18, make ikpt,npw=  13      18
- newkpt: read input wf with ikpt,npw=  14      18, make ikpt,npw=  14      18
- newkpt: read input wf with ikpt,npw=  15      24, make ikpt,npw=  15      24
- newkpt: read input wf with ikpt,npw=  16      24, make ikpt,npw=  16      24
- newkpt: read input wf with ikpt,npw=  17      18, make ikpt,npw=  17      18
- newkpt: read input wf with ikpt,npw=  18      18, make ikpt,npw=  18      18
- newkpt: read input wf with ikpt,npw=  19      24, make ikpt,npw=  19      24
- newkpt: read input wf with ikpt,npw=  20      24, make ikpt,npw=  20      24
- newkpt: read input wf with ikpt,npw=  21      24, make ikpt,npw=  21      24
- newkpt: read input wf with ikpt,npw=  22      24, make ikpt,npw=  22      24
- newkpt: read input wf with ikpt,npw=  23      24, make ikpt,npw=  23      24
- newkpt: read input wf with ikpt,npw=  24      24, make ikpt,npw=  24      24
- newkpt: read input wf with ikpt,npw=  25      24, make ikpt,npw=  25      24
- newkpt: read input wf with ikpt,npw=  26      18, make ikpt,npw=  26      18
- newkpt: read input wf with ikpt,npw=  27      24, make ikpt,npw=  27      24
- newkpt: read input wf with ikpt,npw=  28      24, make ikpt,npw=  28      24
- newkpt: read input wf with ikpt,npw=  29      24, make ikpt,npw=  29      24
- newkpt: read input wf with ikpt,npw=  30      24, make ikpt,npw=  30      24
- newkpt: read input wf with ikpt,npw=  31      24, make ikpt,npw=  31      24
- newkpt: read input wf with ikpt,npw=  32      18, make ikpt,npw=  32      18


 ==>  initialize data related to q vector <== 

 The list of irreducible perturbations for this q vector is:
    1)    idir= 1    ipert=   1
    2)    idir= 1    ipert=   2
    3)    idir= 1    ipert=   4

================================================================================

 The perturbation idir=   2  ipert=   1 is
 symmetric of a previously calculated perturbation.
 So, its SCF calculation is not needed.


 The perturbation idir=   3  ipert=   1 is
 symmetric of a previously calculated perturbation.
 So, its SCF calculation is not needed.


 The perturbation idir=   2  ipert=   2 is
 symmetric of a previously calculated perturbation.
 So, its SCF calculation is not needed.


 The perturbation idir=   3  ipert=   2 is
 symmetric of a previously calculated perturbation.
 So, its SCF calculation is not needed.


 The perturbation idir=   2  ipert=   4 is
 symmetric of a previously calculated perturbation.
 So, its SCF calculation is not needed.


 The perturbation idir=   3  ipert=   4 is
 symmetric of a previously calculated perturbation.
 So, its SCF calculation is not needed.


--------------------------------------------------------------------------------
 Perturbation wavevector (in red.coord.)   0.000000  0.000000  0.000000
 Perturbation : displacement of atom   1   along direction   1
 Found     2 symmetries that leave the perturbation invariant.
 symkpt : the number of k-points, thanks to the symmetries,
 is reduced to    10 .

--------------------------------------------------------------------------------

-inwffil : will read wavefunctions from disk file t98o_DS1_WFK
- newkpt: read input wf with ikpt,npw=   1      24, make ikpt,npw=   1      24
- newkpt: read input wf with ikpt,npw=   2      24, make ikpt,npw=   2      24
- newkpt: read input wf with ikpt,npw=   3      24, make ikpt,npw=   3      24
- newkpt: read input wf with ikpt,npw=   4      18, make ikpt,npw=   4      18
- newkpt: read input wf with ikpt,npw=   5      24, make ikpt,npw=   5      24
- newkpt: read input wf with ikpt,npw=   6      24, make ikpt,npw=   6      24
- newkpt: read input wf with ikpt,npw=   7      24, make ikpt,npw=   7      24
- newkpt: read input wf with ikpt,npw=   8      18, make ikpt,npw=   8      18
- newkpt: read input wf with ikpt,npw=   9      18, make ikpt,npw=   9      18
- newkpt: read input wf with ikpt,npw=  10      24, make ikpt,npw=  10      24

--------------------------------------------------------------------------------

-inwffil : will read wavefunctions from disk file t98o_DS1_WFK
- newkpt: read input wf with ikpt,npw=   1      24, make ikpt,npw=   1      24
- newkpt: read input wf with ikpt,npw=   2      24, make ikpt,npw=   2      24
- newkpt: read input wf with ikpt,npw=   3      24, make ikpt,npw=   3      24
- newkpt: read input wf with ikpt,npw=   4      18, make ikpt,npw=   4      18
- newkpt: read input wf with ikpt,npw=   5      24, make ikpt,npw=   5      24
- newkpt: read input wf with ikpt,npw=   6      24, make ikpt,npw=   6      24
- newkpt: read input wf with ikpt,npw=   7      24, make ikpt,npw=   7      24
- newkpt: read input wf with ikpt,npw=   8      18, make ikpt,npw=   8      18
- newkpt: read input wf with ikpt,npw=   9      18, make ikpt,npw=   9      18
- newkpt: read input wf with ikpt,npw=  10      24, make ikpt,npw=  10      24

 Initialisation of the first-order wave-functions :
  ireadwf=   0
P newkpt: treating      4 bands with npw=      24 for ikpt=   1 by node    0
P newkpt: treating      4 bands with npw=      24 for ikpt=   2 by node    0
P newkpt: treating      4 bands with npw=      24 for ikpt=   3 by node    0
P newkpt: treating      4 bands with npw=      18 for ikpt=   4 by node    0
P newkpt: treating      4 bands with npw=      24 for ikpt=   5 by node    0
P newkpt: treating      4 bands with npw=      24 for ikpt=   6 by node    0
P newkpt: treating      4 bands with npw=      24 for ikpt=   7 by node    0
P newkpt: treating      4 bands with npw=      18 for ikpt=   8 by node    0
P newkpt: treating      4 bands with npw=      18 for ikpt=   9 by node    0
P newkpt: treating      4 bands with npw=      24 for ikpt=  10 by node    0


     iter   2DEtotal(Ha)        deltaE(Ha) residm    vres2
-ETOT  1   13.705967925037     -1.984E+01 3.744E-02 2.356E+01
 ETOT  2   13.260314682322     -4.457E-01 4.562E-04 6.214E-01
 ETOT  3   13.250517074564     -9.798E-03 9.041E-06 4.904E-03
 ETOT  4   13.250459803388     -5.727E-05 4.834E-08 8.721E-05
 ETOT  5   13.250458957610     -8.458E-07 1.439E-09 1.588E-06
 ETOT  6   13.250458939595     -1.802E-08 1.762E-11 3.638E-08
 ETOT  7   13.250458939118     -4.774E-10 2.676E-13 1.076E-09
 ETOT  8   13.250458939106     -1.151E-11 8.612E-15 4.181E-11
 ETOT  9   13.250458939106     -3.766E-13 2.994E-16 1.813E-12
 ETOT 10   13.250458939106     -3.553E-15 9.909E-17 6.056E-14

 At SCF step   10   max residual=  9.91E-17 < tolwfr=  1.00E-16 =>converged.
-open ddk wf file :t98o_DS2_1WF7
================================================================================

 ----iterations are completed or convergence reached----

 Mean square residual over all n,k,spin=   3.7327E-17; max=  9.9087E-17
  -0.2500  0.5000  0.0000    1  5.14873E-17 kpt; spin; max resid(k); each band:
  5.00E-17 3.39E-17 5.15E-17 4.99E-17
   0.5000 -0.2500  0.0000    1  9.87543E-17 kpt; spin; max resid(k); each band:
  9.88E-17 3.16E-17 7.42E-17 5.05E-17
  -0.2500 -0.2500  0.2500    1  5.09514E-17 kpt; spin; max resid(k); each band:
  4.96E-17 3.40E-17 5.10E-17 4.98E-17
  -0.2500  0.0000  0.0000    1  3.97237E-17 kpt; spin; max resid(k); each band:
  3.97E-17 4.58E-18 3.01E-17 6.10E-18
  -0.2500  0.2500  0.2500    1  6.27570E-17 kpt; spin; max resid(k); each band:
  6.28E-17 3.79E-17 2.10E-17 3.94E-17
   0.5000  0.5000  0.2500    1  9.90869E-17 kpt; spin; max resid(k); each band:
  9.91E-17 3.16E-17 7.47E-17 5.04E-17
  -0.2500  0.5000  0.5000    1  6.32965E-17 kpt; spin; max resid(k); each band:
  6.33E-17 3.77E-17 2.11E-17 4.03E-17
   0.0000 -0.2500  0.0000    1  2.56192E-17 kpt; spin; max resid(k); each band:
  2.25E-17 2.56E-17 4.56E-18 5.45E-18
  -0.2500 -0.2500 -0.2500    1  4.00685E-17 kpt; spin; max resid(k); each band:
  4.01E-17 4.64E-18 3.02E-17 6.02E-18
   0.0000  0.5000  0.2500    1  2.37621E-17 kpt; spin; max resid(k); each band:
  1.40E-17 1.93E-17 1.25E-17 2.38E-17

 Thirteen components of 2nd-order total energy (hartree) are
 1,2,3: 0th-order hamiltonian combined with 1st-order wavefunctions
     kin0=   1.66688131E+01 eigvalue=   1.69667089E+00  local=  -8.52523290E+00
 4,5,6: 1st-order hamiltonian combined with 1st and 0th-order wfs
 loc psp =  -1.26628308E+01  Hartree=   2.00238018E+00     xc=  -9.82732417E-01
 note that "loc psp" includes a xc core correction that could be resolved
 7,8,9: eventually, occupation + non-local contributions
    edocc=   0.00000000E+00     enl0=   9.44027489E+00   enl1=  -2.79375165E+01
 1-9 gives the relaxation energy (to be shifted if some occ is /=2.0)
   erelax=  -2.03001736E+01
 10,11,12 Non-relaxation  contributions : frozen-wavefunctions and Ewald
 fr.local=   3.15498502E+00 fr.nonlo=   1.85405809E+01  Ewald=   1.18550666E+01
 13,14 Frozen wf xc core corrections (1) and (2)
 frxc 1  =   0.00000000E+00  frxc 2 =   0.00000000E+00
 Resulting in :
 2DEtotal=    0.1325045894E+02 Ha. Also 2DEtotal=    0.360563324513E+03 eV
    (2DErelax=   -2.0300173634E+01 Ha. 2DEnonrelax=    3.3550632573E+01 Ha)
    (  non-var. 2DEtotal :    1.3250458905E+01 Ha)


--------------------------------------------------------------------------------
 Perturbation wavevector (in red.coord.)   0.000000  0.000000  0.000000
 Perturbation : displacement of atom   2   along direction   1
 Found     2 symmetries that leave the perturbation invariant.
 symkpt : the number of k-points, thanks to the symmetries,
 is reduced to    10 .

--------------------------------------------------------------------------------

-inwffil : will read wavefunctions from disk file t98o_DS1_WFK
- newkpt: read input wf with ikpt,npw=   1      24, make ikpt,npw=   1      24
- newkpt: read input wf with ikpt,npw=   2      24, make ikpt,npw=   2      24
- newkpt: read input wf with ikpt,npw=   3      24, make ikpt,npw=   3      24
- newkpt: read input wf with ikpt,npw=   4      18, make ikpt,npw=   4      18
- newkpt: read input wf with ikpt,npw=   5      24, make ikpt,npw=   5      24
- newkpt: read input wf with ikpt,npw=   6      24, make ikpt,npw=   6      24
- newkpt: read input wf with ikpt,npw=   7      24, make ikpt,npw=   7      24
- newkpt: read input wf with ikpt,npw=   8      18, make ikpt,npw=   8      18
- newkpt: read input wf with ikpt,npw=   9      18, make ikpt,npw=   9      18
- newkpt: read input wf with ikpt,npw=  10      24, make ikpt,npw=  10      24

--------------------------------------------------------------------------------

-inwffil : will read wavefunctions from disk file t98o_DS1_WFK
- newkpt: read input wf with ikpt,npw=   1      24, make ikpt,npw=   1      24
- newkpt: read input wf with ikpt,npw=   2      24, make ikpt,npw=   2      24
- newkpt: read input wf with ikpt,npw=   3      24, make ikpt,npw=   3      24
- newkpt: read input wf with ikpt,npw=   4      18, make ikpt,npw=   4      18
- newkpt: read input wf with ikpt,npw=   5      24, make ikpt,npw=   5      24
- newkpt: read input wf with ikpt,npw=   6      24, make ikpt,npw=   6      24
- newkpt: read input wf with ikpt,npw=   7      24, make ikpt,npw=   7      24
- newkpt: read input wf with ikpt,npw=   8      18, make ikpt,npw=   8      18
- newkpt: read input wf with ikpt,npw=   9      18, make ikpt,npw=   9      18
- newkpt: read input wf with ikpt,npw=  10      24, make ikpt,npw=  10      24

 Initialisation of the first-order wave-functions :
  ireadwf=   0
P newkpt: treating      4 bands with npw=      24 for ikpt=   1 by node    0
P newkpt: treating      4 bands with npw=      24 for ikpt=   2 by node    0
P newkpt: treating      4 bands with npw=      24 for ikpt=   3 by node    0
P newkpt: treating      4 bands with npw=      18 for ikpt=   4 by node    0
P newkpt: treating      4 bands with npw=      24 for ikpt=   5 by node    0
P newkpt: treating      4 bands with npw=      24 for ikpt=   6 by node    0
P newkpt: treating      4 bands with npw=      24 for ikpt=   7 by node    0
P newkpt: treating      4 bands with npw=      18 for ikpt=   8 by node    0
P newkpt: treating      4 bands with npw=      18 for ikpt=   9 by node    0
P newkpt: treating      4 bands with npw=      24 for ikpt=  10 by node    0


     iter   2DEtotal(Ha)        deltaE(Ha) residm    vres2
-ETOT  1   18.727585765229     -4.618E+01 1.744E-01 2.384E+02
 ETOT  2   13.286113342256     -5.441E+00 3.466E-03 1.985E+00
 ETOT  3   13.251421192537     -3.469E-02 2.394E-05 3.375E-02
 ETOT  4   13.251023106069     -3.981E-04 2.360E-07 6.322E-04
 ETOT  5   13.251016383305     -6.723E-06 6.110E-09 8.154E-06
 ETOT  6   13.251016299547     -8.376E-08 6.150E-11 1.397E-07
 ETOT  7   13.251016297939     -1.608E-09 1.114E-12 2.806E-09
 ETOT  8   13.251016297912     -2.714E-11 2.673E-14 1.552E-10
 ETOT  9   13.251016297910     -1.421E-12 8.539E-16 5.061E-12
 ETOT 10   13.251016297910     -6.395E-14 9.690E-17 1.610E-13

 At SCF step   10   max residual=  9.69E-17 < tolwfr=  1.00E-16 =>converged.
-open ddk wf file :t98o_DS2_1WF7
================================================================================

 ----iterations are completed or convergence reached----

 Mean square residual over all n,k,spin=   4.6421E-17; max=  9.6904E-17
  -0.2500  0.5000  0.0000    1  9.31869E-17 kpt; spin; max resid(k); each band:
  1.28E-17 2.02E-17 8.71E-17 9.32E-17
   0.5000 -0.2500  0.0000    1  9.35070E-17 kpt; spin; max resid(k); each band:
  4.06E-17 9.24E-17 8.84E-18 9.35E-17
  -0.2500 -0.2500  0.2500    1  9.29696E-17 kpt; spin; max resid(k); each band:
  1.27E-17 1.91E-17 8.77E-17 9.30E-17
  -0.2500  0.0000  0.0000    1  6.92952E-17 kpt; spin; max resid(k); each band:
  6.15E-17 1.38E-17 6.93E-17 6.21E-17
  -0.2500  0.2500  0.2500    1  6.39230E-17 kpt; spin; max resid(k); each band:
  2.00E-17 3.23E-17 6.39E-17 1.07E-17
   0.5000  0.5000  0.2500    1  9.33904E-17 kpt; spin; max resid(k); each band:
  4.05E-17 9.23E-17 8.85E-18 9.34E-17
  -0.2500  0.5000  0.5000    1  6.40230E-17 kpt; spin; max resid(k); each band:
  1.99E-17 3.23E-17 6.40E-17 1.18E-17
   0.0000 -0.2500  0.0000    1  2.90492E-17 kpt; spin; max resid(k); each band:
  1.23E-17 2.90E-17 6.94E-18 7.90E-18
  -0.2500 -0.2500 -0.2500    1  6.88764E-17 kpt; spin; max resid(k); each band:
  6.08E-17 1.39E-17 6.89E-17 6.17E-17
   0.0000  0.5000  0.2500    1  9.69039E-17 kpt; spin; max resid(k); each band:
  2.45E-17 8.38E-17 3.23E-17 9.69E-17

 Thirteen components of 2nd-order total energy (hartree) are
 1,2,3: 0th-order hamiltonian combined with 1st-order wavefunctions
     kin0=   6.23277374E+01 eigvalue=   4.87230084E+00  local=  -3.38912469E+01
 4,5,6: 1st-order hamiltonian combined with 1st and 0th-order wfs
 loc psp =  -6.26330557E+01  Hartree=   1.47353650E+01     xc=  -6.22054632E+00
 note that "loc psp" includes a xc core correction that could be resolved
 7,8,9: eventually, occupation + non-local contributions
    edocc=   0.00000000E+00     enl0=   9.82800340E+00   enl1=  -4.06701709E+01
 1-9 gives the relaxation energy (to be shifted if some occ is /=2.0)
   erelax=  -5.16516132E+01
 10,11,12 Non-relaxation  contributions : frozen-wavefunctions and Ewald
 fr.local=   2.93378919E+01 fr.nonlo=   2.37096710E+01  Ewald=   1.18550666E+01
 13,14 Frozen wf xc core corrections (1) and (2)
 frxc 1  =   0.00000000E+00  frxc 2 =   0.00000000E+00
 Resulting in :
 2DEtotal=    0.1325101630E+02 Ha. Also 2DEtotal=    0.360578491018E+03 eV
    (2DErelax=   -5.1651613224E+01 Ha. 2DEnonrelax=    6.4902629522E+01 Ha)
    (  non-var. 2DEtotal :    1.3251016219E+01 Ha)


--------------------------------------------------------------------------------
 Perturbation wavevector (in red.coord.)   0.000000  0.000000  0.000000
 Perturbation : homogeneous electric field along direction   1
 The set of symmetries contains only one element for this perturbation.
 symkpt : not enough symmetry to change the number of k points.

--------------------------------------------------------------------------------

-inwffil : will read wavefunctions from disk file t98o_DS1_WFK
- newkpt: read input wf with ikpt,npw=   1      24, make ikpt,npw=   1      24
- newkpt: read input wf with ikpt,npw=   2      24, make ikpt,npw=   2      24
- newkpt: read input wf with ikpt,npw=   3      24, make ikpt,npw=   3      24
- newkpt: read input wf with ikpt,npw=   4      18, make ikpt,npw=   4      18
- newkpt: read input wf with ikpt,npw=   5      24, make ikpt,npw=   5      24
- newkpt: read input wf with ikpt,npw=   6      24, make ikpt,npw=   6      24
- newkpt: read input wf with ikpt,npw=   7      24, make ikpt,npw=   7      24
- newkpt: read input wf with ikpt,npw=   8      24, make ikpt,npw=   8      24
- newkpt: read input wf with ikpt,npw=   9      24, make ikpt,npw=   9      24
- newkpt: read input wf with ikpt,npw=  10      18, make ikpt,npw=  10      18
- newkpt: read input wf with ikpt,npw=  11      24, make ikpt,npw=  11      24
- newkpt: read input wf with ikpt,npw=  12      24, make ikpt,npw=  12      24
- newkpt: read input wf with ikpt,npw=  13      18, make ikpt,npw=  13      18
- newkpt: read input wf with ikpt,npw=  14      18, make ikpt,npw=  14      18
- newkpt: read input wf with ikpt,npw=  15      24, make ikpt,npw=  15      24
- newkpt: read input wf with ikpt,npw=  16      24, make ikpt,npw=  16      24
- newkpt: read input wf with ikpt,npw=  17      18, make ikpt,npw=  17      18
- newkpt: read input wf with ikpt,npw=  18      18, make ikpt,npw=  18      18
- newkpt: read input wf with ikpt,npw=  19      24, make ikpt,npw=  19      24
- newkpt: read input wf with ikpt,npw=  20      24, make ikpt,npw=  20      24
- newkpt: read input wf with ikpt,npw=  21      24, make ikpt,npw=  21      24
- newkpt: read input wf with ikpt,npw=  22      24, make ikpt,npw=  22      24
- newkpt: read input wf with ikpt,npw=  23      24, make ikpt,npw=  23      24
- newkpt: read input wf with ikpt,npw=  24      24, make ikpt,npw=  24      24
- newkpt: read input wf with ikpt,npw=  25      24, make ikpt,npw=  25      24
- newkpt: read input wf with ikpt,npw=  26      18, make ikpt,npw=  26      18
- newkpt: read input wf with ikpt,npw=  27      24, make ikpt,npw=  27      24
- newkpt: read input wf with ikpt,npw=  28      24, make ikpt,npw=  28      24
- newkpt: read input wf with ikpt,npw=  29      24, make ikpt,npw=  29      24
- newkpt: read input wf with ikpt,npw=  30      24, make ikpt,npw=  30      24
- newkpt: read input wf with ikpt,npw=  31      24, make ikpt,npw=  31      24
- newkpt: read input wf with ikpt,npw=  32      18, make ikpt,npw=  32      18

--------------------------------------------------------------------------------

-inwffil : will read wavefunctions from disk file t98o_DS1_WFK
- newkpt: read input wf with ikpt,npw=   1      24, make ikpt,npw=   1      24
- newkpt: read input wf with ikpt,npw=   2      24, make ikpt,npw=   2      24
- newkpt: read input wf with ikpt,npw=   3      24, make ikpt,npw=   3      24
- newkpt: read input wf with ikpt,npw=   4      18, make ikpt,npw=   4      18
- newkpt: read input wf with ikpt,npw=   5      24, make ikpt,npw=   5      24
- newkpt: read input wf with ikpt,npw=   6      24, make ikpt,npw=   6      24
- newkpt: read input wf with ikpt,npw=   7      24, make ikpt,npw=   7      24
- newkpt: read input wf with ikpt,npw=   8      24, make ikpt,npw=   8      24
- newkpt: read input wf with ikpt,npw=   9      24, make ikpt,npw=   9      24
[...]
                       5.00000000E-01  2.50000000E-01  0.00000000E+00
                      -2.50000000E-01  2.50000000E-01  2.50000000E-01
                       2.50000000E-01  5.00000000E-01  0.00000000E+00
                       5.00000000E-01  5.00000000E-01  2.50000000E-01
                      -2.50000000E-01  5.00000000E-01  5.00000000E-01
                       0.00000000E+00 -2.50000000E-01  0.00000000E+00
                       2.50000000E-01 -2.50000000E-01  2.50000000E-01
                       5.00000000E-01 -2.50000000E-01  5.00000000E-01
                      -2.50000000E-01 -2.50000000E-01 -2.50000000E-01
                       2.50000000E-01  0.00000000E+00  0.00000000E+00
                       5.00000000E-01  0.00000000E+00  2.50000000E-01
                      -2.50000000E-01  0.00000000E+00  5.00000000E-01
                       0.00000000E+00  2.50000000E-01  0.00000000E+00
                       2.50000000E-01  2.50000000E-01  2.50000000E-01
                       5.00000000E-01  2.50000000E-01  5.00000000E-01
                      -2.50000000E-01  2.50000000E-01 -2.50000000E-01
                       0.00000000E+00  5.00000000E-01  2.50000000E-01
                       2.50000000E-01  5.00000000E-01  5.00000000E-01
                       5.00000000E-01  5.00000000E-01 -2.50000000E-01
                       0.00000000E+00 -2.50000000E-01  5.00000000E-01
                       2.50000000E-01 -2.50000000E-01 -2.50000000E-01
                       0.00000000E+00  0.00000000E+00  2.50000000E-01
                       2.50000000E-01  0.00000000E+00  5.00000000E-01
                       5.00000000E-01  0.00000000E+00 -2.50000000E-01
                       0.00000000E+00  2.50000000E-01  5.00000000E-01
                       2.50000000E-01  2.50000000E-01 -2.50000000E-01
                       0.00000000E+00  5.00000000E-01 -2.50000000E-01
                       0.00000000E+00  0.00000000E+00 -2.50000000E-01
              kpt3    -2.50000000E-01  5.00000000E-01  0.00000000E+00
                       5.00000000E-01 -2.50000000E-01  0.00000000E+00
                      -2.50000000E-01 -2.50000000E-01  2.50000000E-01
                      -2.50000000E-01  0.00000000E+00  0.00000000E+00
                       5.00000000E-01  2.50000000E-01  0.00000000E+00
                      -2.50000000E-01  2.50000000E-01  2.50000000E-01
                       2.50000000E-01  5.00000000E-01  0.00000000E+00
                       5.00000000E-01  5.00000000E-01  2.50000000E-01
                      -2.50000000E-01  5.00000000E-01  5.00000000E-01
                       0.00000000E+00 -2.50000000E-01  0.00000000E+00
                       2.50000000E-01 -2.50000000E-01  2.50000000E-01
                       5.00000000E-01 -2.50000000E-01  5.00000000E-01
                      -2.50000000E-01 -2.50000000E-01 -2.50000000E-01
                       2.50000000E-01  0.00000000E+00  0.00000000E+00
                       5.00000000E-01  0.00000000E+00  2.50000000E-01
                      -2.50000000E-01  0.00000000E+00  5.00000000E-01
                       0.00000000E+00  2.50000000E-01  0.00000000E+00
                       2.50000000E-01  2.50000000E-01  2.50000000E-01
                       5.00000000E-01  2.50000000E-01  5.00000000E-01
                      -2.50000000E-01  2.50000000E-01 -2.50000000E-01
                       0.00000000E+00  5.00000000E-01  2.50000000E-01
                       2.50000000E-01  5.00000000E-01  5.00000000E-01
                       5.00000000E-01  5.00000000E-01 -2.50000000E-01
                       0.00000000E+00 -2.50000000E-01  5.00000000E-01
                       2.50000000E-01 -2.50000000E-01 -2.50000000E-01
                       0.00000000E+00  0.00000000E+00  2.50000000E-01
                       2.50000000E-01  0.00000000E+00  5.00000000E-01
                       5.00000000E-01  0.00000000E+00 -2.50000000E-01
                       0.00000000E+00  2.50000000E-01  5.00000000E-01
                       2.50000000E-01  2.50000000E-01 -2.50000000E-01
                       0.00000000E+00  5.00000000E-01 -2.50000000E-01
                       0.00000000E+00  0.00000000E+00 -2.50000000E-01
              kpt4    -2.50000000E-01  5.00000000E-01  0.00000000E+00
                       5.00000000E-01 -2.50000000E-01  0.00000000E+00
                      -2.50000000E-01 -2.50000000E-01  2.50000000E-01
                      -2.50000000E-01  0.00000000E+00  0.00000000E+00
                       5.00000000E-01  2.50000000E-01  0.00000000E+00
                      -2.50000000E-01  2.50000000E-01  2.50000000E-01
                       2.50000000E-01  5.00000000E-01  0.00000000E+00
                       5.00000000E-01  5.00000000E-01  2.50000000E-01
                      -2.50000000E-01  5.00000000E-01  5.00000000E-01
                       0.00000000E+00 -2.50000000E-01  0.00000000E+00
                       2.50000000E-01 -2.50000000E-01  2.50000000E-01
                       5.00000000E-01 -2.50000000E-01  5.00000000E-01
                      -2.50000000E-01 -2.50000000E-01 -2.50000000E-01
                       2.50000000E-01  0.00000000E+00  0.00000000E+00
                       5.00000000E-01  0.00000000E+00  2.50000000E-01
                      -2.50000000E-01  0.00000000E+00  5.00000000E-01
                       0.00000000E+00  2.50000000E-01  0.00000000E+00
                       2.50000000E-01  2.50000000E-01  2.50000000E-01
                       5.00000000E-01  2.50000000E-01  5.00000000E-01
                      -2.50000000E-01  2.50000000E-01 -2.50000000E-01
                       0.00000000E+00  5.00000000E-01  2.50000000E-01
                       2.50000000E-01  5.00000000E-01  5.00000000E-01
                       5.00000000E-01  5.00000000E-01 -2.50000000E-01
                       0.00000000E+00 -2.50000000E-01  5.00000000E-01
                       2.50000000E-01 -2.50000000E-01 -2.50000000E-01
                       0.00000000E+00  0.00000000E+00  2.50000000E-01
                       2.50000000E-01  0.00000000E+00  5.00000000E-01
                       5.00000000E-01  0.00000000E+00 -2.50000000E-01
                       0.00000000E+00  2.50000000E-01  5.00000000E-01
                       2.50000000E-01  2.50000000E-01 -2.50000000E-01
                       0.00000000E+00  5.00000000E-01 -2.50000000E-01
                       0.00000000E+00  0.00000000E+00 -2.50000000E-01
              kpt5    -2.50000000E-01  5.00000000E-01  0.00000000E+00
                       5.00000000E-01 -2.50000000E-01  0.00000000E+00
                      -2.50000000E-01 -2.50000000E-01  2.50000000E-01
                      -2.50000000E-01  0.00000000E+00  0.00000000E+00
                       5.00000000E-01  2.50000000E-01  0.00000000E+00
                      -2.50000000E-01  2.50000000E-01  2.50000000E-01
                       2.50000000E-01  5.00000000E-01  0.00000000E+00
                       5.00000000E-01  5.00000000E-01  2.50000000E-01
                      -2.50000000E-01  5.00000000E-01  5.00000000E-01
                       0.00000000E+00 -2.50000000E-01  0.00000000E+00
                       2.50000000E-01 -2.50000000E-01  2.50000000E-01
                       5.00000000E-01 -2.50000000E-01  5.00000000E-01
                      -2.50000000E-01 -2.50000000E-01 -2.50000000E-01
                       2.50000000E-01  0.00000000E+00  0.00000000E+00
                       5.00000000E-01  0.00000000E+00  2.50000000E-01
                      -2.50000000E-01  0.00000000E+00  5.00000000E-01
                       0.00000000E+00  2.50000000E-01  0.00000000E+00
                       2.50000000E-01  2.50000000E-01  2.50000000E-01
                       5.00000000E-01  2.50000000E-01  5.00000000E-01
                      -2.50000000E-01  2.50000000E-01 -2.50000000E-01
                       0.00000000E+00  5.00000000E-01  2.50000000E-01
                       2.50000000E-01  5.00000000E-01  5.00000000E-01
                       5.00000000E-01  5.00000000E-01 -2.50000000E-01
                       0.00000000E+00 -2.50000000E-01  5.00000000E-01
                       2.50000000E-01 -2.50000000E-01 -2.50000000E-01
                       0.00000000E+00  0.00000000E+00  2.50000000E-01
                       2.50000000E-01  0.00000000E+00  5.00000000E-01
                       5.00000000E-01  0.00000000E+00 -2.50000000E-01
                       0.00000000E+00  2.50000000E-01  5.00000000E-01
                       2.50000000E-01  2.50000000E-01 -2.50000000E-01
                       0.00000000E+00  5.00000000E-01 -2.50000000E-01
                       0.00000000E+00  0.00000000E+00 -2.50000000E-01
           kptopt1          1
           kptopt2          3
           kptopt3          3
           kptopt4          3
           kptopt5          3
         kptrlatt        2   -2    2     -2    2    2     -2   -2    2
          kptrlen      2.12000000E+01
P           mkmem1          2
P           mkmem2         32
P           mkmem3         32
P           mkmem4         32
P           mkmem5         32
P          mkqmem1          2
P          mkqmem2         32
P          mkqmem3         32
P          mkqmem4         32
P          mkqmem5         32
P          mk1mem1          2
P          mk1mem2         32
P          mk1mem3         32
P          mk1mem4         32
P          mk1mem5         32
            natom           2
            nband1          4
            nband2          4
            nband3          4
            nband4          4
            nband5          4
           ndtset           5
            ngfft1         10      10      10
            ngfft2          8       8       8
            ngfft3          8       8       8
            ngfft4         10      10      10
            ngfft5         10      10      10
             nkpt1          2
             nkpt2         32
             nkpt3         32
             nkpt4         32
             nkpt5         32
             nqpt1          0
             nqpt2          1
             nqpt3          1
             nqpt4          1
             nqpt5          1
            nstep          12
             nsym          24
           ntypat           2
              occ1     2.000000  2.000000  2.000000  2.000000
              occ2     2.000000  2.000000  2.000000  2.000000
              occ3     2.000000  2.000000  2.000000  2.000000
              occ4     2.000000  2.000000  2.000000  2.000000
              occ5     2.000000  2.000000  2.000000  2.000000
        optdriver1          0
        optdriver2          1
        optdriver3          1
        optdriver4          1
        optdriver5          1
          rfatpol1          1       1
          rfatpol2          1       1
          rfatpol3          1       2
          rfatpol4          1       1
          rfatpol5          1       2
            rfdir1          0       0       0
            rfdir2          1       0       0
            rfdir3          1       1       1
            rfdir4          1       0       0
            rfdir5          1       1       1
           rfelfd1          0
           rfelfd2          2
           rfelfd3          3
           rfelfd4          2
           rfelfd5          3
           rfphon1          0
           rfphon2          0
           rfphon3          1
           rfphon4          0
           rfphon5          1
            rprim      0.0000000000E+00  5.0000000000E-01  5.0000000000E-01
                       5.0000000000E-01  0.0000000000E+00  5.0000000000E-01
                       5.0000000000E-01  5.0000000000E-01  0.0000000000E+00
           shiftk      5.00000000E-01  5.00000000E-01  5.00000000E-01
          spgroup         216
           strten1     5.1523609643E-05  5.1523609643E-05  5.1523609643E-05
                       0.0000000000E+00  0.0000000000E+00  0.0000000000E+00
           strten3     0.0000000000E+00  0.0000000000E+00  0.0000000000E+00
                       0.0000000000E+00  0.0000000000E+00  0.0000000000E+00
           strten5     0.0000000000E+00  0.0000000000E+00  0.0000000000E+00
                       0.0000000000E+00  0.0000000000E+00  0.0000000000E+00
           symrel      1  0  0   0  1  0   0  0  1       0 -1  1   0 -1  0   1 -1  0
                      -1  0  0  -1  0  1  -1  1  0       0  1 -1   1  0 -1   0  0 -1
                      -1  0  0  -1  1  0  -1  0  1       0 -1  1   1 -1  0   0 -1  0
                       1  0  0   0  0  1   0  1  0       0  1 -1   0  0 -1   1  0 -1
                      -1  0  1  -1  1  0  -1  0  0       0 -1  0   1 -1  0   0 -1  1
                       1  0 -1   0  0 -1   0  1 -1       0  1  0   0  0  1   1  0  0
                       1  0 -1   0  1 -1   0  0 -1       0 -1  0   0 -1  1   1 -1  0
                      -1  0  1  -1  0  0  -1  1  0       0  1  0   1  0  0   0  0  1
                       0  0 -1   0  1 -1   1  0 -1       1 -1  0   0 -1  1   0 -1  0
                       0  0  1   1  0  0   0  1  0      -1  1  0  -1  0  0  -1  0  1
                       0  0  1   0  1  0   1  0  0       1 -1  0   0 -1  0   0 -1  1
                       0  0 -1   1  0 -1   0  1 -1      -1  1  0  -1  0  1  -1  0  0
           tolwfr1     1.00000000E-22
           tolwfr2     1.00000000E-22
           tolwfr3     1.00000000E-16
           tolwfr4     1.00000000E-22
           tolwfr5     1.00000000E-16
            typat      1  2
              wtk1       0.75000    0.25000
              wtk2       0.03125    0.03125    0.03125    0.03125    0.03125    0.03125
                         0.03125    0.03125    0.03125    0.03125    0.03125    0.03125
                         0.03125    0.03125    0.03125    0.03125    0.03125    0.03125
                         0.03125    0.03125    0.03125    0.03125    0.03125    0.03125
                         0.03125    0.03125    0.03125    0.03125    0.03125    0.03125
                         0.03125    0.03125
              wtk3       0.03125    0.03125    0.03125    0.03125    0.03125    0.03125
                         0.03125    0.03125    0.03125    0.03125    0.03125    0.03125
                         0.03125    0.03125    0.03125    0.03125    0.03125    0.03125
                         0.03125    0.03125    0.03125    0.03125    0.03125    0.03125
                         0.03125    0.03125    0.03125    0.03125    0.03125    0.03125
                         0.03125    0.03125
              wtk4       0.03125    0.03125    0.03125    0.03125    0.03125    0.03125
                         0.03125    0.03125    0.03125    0.03125    0.03125    0.03125
                         0.03125    0.03125    0.03125    0.03125    0.03125    0.03125
                         0.03125    0.03125    0.03125    0.03125    0.03125    0.03125
                         0.03125    0.03125    0.03125    0.03125    0.03125    0.03125
                         0.03125    0.03125
              wtk5       0.03125    0.03125    0.03125    0.03125    0.03125    0.03125
                         0.03125    0.03125    0.03125    0.03125    0.03125    0.03125
                         0.03125    0.03125    0.03125    0.03125    0.03125    0.03125
                         0.03125    0.03125    0.03125    0.03125    0.03125    0.03125
                         0.03125    0.03125    0.03125    0.03125    0.03125    0.03125
                         0.03125    0.03125
           xangst      0.0000000000E+00  0.0000000000E+00  0.0000000000E+00
                       1.4023196028E+00  1.4023196028E+00  1.4023196028E+00
            xcart      0.0000000000E+00  0.0000000000E+00  0.0000000000E+00
                       2.6500000000E+00  2.6500000000E+00  2.6500000000E+00
             xred      0.0000000000E+00  0.0000000000E+00  0.0000000000E+00
                       2.5000000000E-01  2.5000000000E-01  2.5000000000E-01
            znucl       31.00000   33.00000

================================================================================


- Timing analysis has been suppressed with timopt=0



================================================================================

 Suggested references for the acknowledgment of ABINIT usage.

 The users of ABINIT have little formal obligations with respect to the ABINIT group
 (those specified in the GNU General Public License, http://www.gnu.org/copyleft/gpl.txt).
 However, it is common practice in the scientific literature,
 to acknowledge the efforts of people that have made the research possible.
 In this spirit, please find below suggested citations of work written by ABINIT developers,
 corresponding to implementations inside of ABINIT that you have used in the present run.
 Note also that it will be of great value to readers of publications presenting these results,
 to read papers enabling them to understand the theoretical formalism and details
 of the ABINIT implementation.
 For information on why they are suggested, see also http://www.abinit.org/about/?text=acknowledgments.

 [1] First-principles responses of solids to atomic displacements and homogeneous electric fields:,
 implementation of a conjugate-gradient algorithm. X. Gonze, Phys. Rev. B55, 10337 (1997).
 Comment : Non-vanishing rfphon and/or rfelfd, in the norm-conserving case.

 [2] Dynamical matrices, Born effective charges, dielectric permittivity tensors, and ,
 interatomic force constants from density-functional perturbation theory,
 X. Gonze and C. Lee, Phys. Rev. B55, 10355 (1997).
 Comment : Non-vanishing rfphon and/or rfelfd, in the norm-conserving case.

 [3] ABINIT : First-principles approach of materials and nanosystem properties.
 X. Gonze, B. Amadon, P.-M. Anglade, J.-M. Beuken, F. Bottin, P. Boulanger, F. Bruneval,
 D. Caliste, R. Caracas, M. Cote, T. Deutsch, L. Genovese, Ph. Ghosez, M. Giantomassi
 S. Goedecker, D.R. Hamann, P. Hermet, F. Jollet, G. Jomard, S. Leroux, M. Mancini, S. Mazevet,
 M.J.T. Oliveira, G. Onida, Y. Pouillon, T. Rangel, G.-M. Rignanese, D. Sangalli, R. Shaltaf,
 M. Torrent, M.J. Verstraete, G. Zerah, J.W. Zwanziger
 Computer Phys. Comm. 180, 2582-2615 (2009).
 Comment : the third generic paper describing the ABINIT project.
 Note that a version of this paper, that is not formatted for Computer Phys. Comm. 
 is available at http://www.abinit.org/about/ABINIT_CPC_v10.pdf .
 The licence allows the authors to put it on the Web.

 [4] A brief introduction to the ABINIT software package.
 X. Gonze, G.-M. Rignanese, M. Verstraete, J.-M. Beuken, Y. Pouillon, R. Caracas, F. Jollet,
 M. Torrent, G. Zerah, M. Mikami, Ph. Ghosez, M. Veithen, J.-Y. Raty, V. Olevano, F. Bruneval,
 L. Reining, R. Godby, G. Onida, D.R. Hamann, and D.C. Allan.
 Z. Kristallogr. 220, 558-562 (2005).
 Comment : the second generic paper describing the ABINIT project. Note that this paper
 should be cited especially if you are using the GW part of ABINIT, as several authors
 of this part are not in the list of authors of the first or third paper.
 The .pdf of the latter paper is available at http://www.abinit.org/about/zfk_0505-06_558-562.pdf.
 Note that it should not redistributed (Copyright by Oldenburg Wissenshaftverlag,
 the licence allows the authors to put it on the Web).


 And optionally :

 [5] First-principles computation of material properties : the ABINIT software project. 
 X. Gonze, J.-M. Beuken, R. Caracas, F. Detraux, M. Fuchs, G.-M. Rignanese, L. Sindic,
 M. Verstraete, G. Zerah, F. Jollet, M. Torrent, A. Roy, M. Mikami, Ph. Ghosez, J.-Y. Raty, D.C. Allan.
 Computational Materials Science 25, 478-492 (2002). http://dx.doi.org/10.1016/S0927-0256(02)00325-7
 Comment : the original paper describing the ABINIT project.
-
- Proc.   0 individual time (sec): cpu=          2.7  wall=          2.7

================================================================================

 Calculation completed.
.Delivered   61 WARNINGs and   7 COMMENTs to log file.
+Overall time at end (sec) : cpu=          2.7  wall=          2.7
