
.Version 7.10.4 of ABINIT 
.(MPI version, prepared for a x86_64_linux_gnu4.7 computer) 

.Copyright (C) 1998-2014 ABINIT group . 
 ABINIT comes with ABSOLUTELY NO WARRANTY.
 It is free software, and you are welcome to redistribute it
 under certain conditions (GNU General Public License,
 see ~abinit/COPYING or http://www.gnu.org/copyleft/gpl.txt).

 ABINIT is a project of the Universite Catholique de Louvain,
 Corning Inc. and other collaborators, see ~abinit/doc/developers/contributors.txt .
 Please read ~abinit/doc/users/acknowledgments.html for suggested
 acknowledgments of the ABINIT effort.
 For more information, see http://www.abinit.org .

.Starting date : Wed 11 Mar 2015.
- ( at 10h24 )
  
- input  file    -> t99.in
- output file    -> t99.out
- root for input  files -> t99i
- root for output files -> t99o


 DATASET    1 : space group Im -3 m (#229); Bravais cI (body-center cubic)
================================================================================
 Values of the parameters that define the memory need for DATASET  1.
   intxc =         0  ionmov =         0    iscf =         5 xclevel =         1
  lmnmax =         3   lnmax =         3   mband =         6  mffmem =         1
P  mgfft =        15   mkmem =         8 mpssoang=         3     mpw =       104
  mqgrid =      3001   natom =         1    nfft =      3375    nkpt =         8
  nloalg =         4  nspden =         1 nspinor =         1  nsppol =         1
    nsym =        48  n1xccc =         0  ntypat =         1  occopt =         4
================================================================================
P This job should need less than                       2.074 Mbytes of memory.
  Rough estimation (10% accuracy) of disk space for files :
_ WF disk file :      0.078 Mbytes ; DEN or POT disk file :      0.028 Mbytes.
================================================================================


 DATASET    2 : space group Im -3 m (#229); Bravais cI (body-center cubic)
================================================================================
 Values of the parameters that define the memory need for DATASET  2 (RF).
   intxc =         0    iscf =         5 xclevel =         1  lmnmax =         3
   lnmax =         3   mband =         6  mffmem =         1   mgfft =        15
P  mkmem =       128  mkqmem =       128  mk1mem =       128 mpssoang=         3
     mpw =       104  mqgrid =      3001   natom =         1    nfft =      3375
    nkpt =       128  nloalg =         4  nspden =         1 nspinor =         1
  nsppol =         1    nsym =        48  n1xccc =         0  ntypat =         1
  occopt =         4
================================================================================
P This job should need less than                       6.608 Mbytes of memory.
  Rough estimation (10% accuracy) of disk space for files :
_ WF disk file :      1.221 Mbytes ; DEN or POT disk file :      0.028 Mbytes.
================================================================================

--------------------------------------------------------------------------------
------------- Echo of variables that govern the present computation ------------
--------------------------------------------------------------------------------
-
- outvars: echo of selected default values                                      
-   accesswff0 =  0 , fftalg0 =112 , wfoptalg0 =  0
-
- outvars: echo of global parameters not present in the input file              
-  max_nthreads =    0
-
 -outvars: echo values of preprocessed input variables --------
            acell      6.1200000000E+00  6.1200000000E+00  6.1200000000E+00 Bohr
              amu      9.29063800E+01
             ecut      7.00000000E+00 Hartree
           enunit           2
-          fftalg         112
           getwfk1          0
           getwfk2          1
             iscf           5
           jdtset        1    2
              kpt1    -6.25000000E-02 -6.25000000E-02  1.87500000E-01
                      -6.25000000E-02 -6.25000000E-02  4.37500000E-01
                      -1.87500000E-01 -1.87500000E-01  6.25000000E-02
                      -1.87500000E-01 -1.87500000E-01 -4.37500000E-01
                      -6.25000000E-02 -3.12500000E-01 -3.12500000E-01
                      -1.87500000E-01 -4.37500000E-01  6.25000000E-02
                      -3.12500000E-01 -3.12500000E-01  1.87500000E-01
                      -4.37500000E-01 -4.37500000E-01  3.12500000E-01
              kpt2    -6.25000000E-02 -6.25000000E-02  1.87500000E-01
                      -6.25000000E-02 -6.25000000E-02  4.37500000E-01
                      -6.25000000E-02 -6.25000000E-02 -3.12500000E-01
                      -6.25000000E-02 -6.25000000E-02 -6.25000000E-02
                      -1.87500000E-01 -1.87500000E-01  6.25000000E-02
                      -6.25000000E-02 -3.12500000E-01  1.87500000E-01
                      -3.12500000E-01 -6.25000000E-02  1.87500000E-01
                      -1.87500000E-01 -1.87500000E-01  3.12500000E-01
                      -6.25000000E-02 -3.12500000E-01  4.37500000E-01
                      -3.12500000E-01 -6.25000000E-02  4.37500000E-01
                      -1.87500000E-01 -1.87500000E-01 -4.37500000E-01
                      -6.25000000E-02 -3.12500000E-01 -3.12500000E-01
                      -3.12500000E-01 -6.25000000E-02 -3.12500000E-01
                      -1.87500000E-01 -1.87500000E-01 -1.87500000E-01
                      -6.25000000E-02 -3.12500000E-01 -6.25000000E-02
                      -3.12500000E-01 -6.25000000E-02 -6.25000000E-02
                      -1.87500000E-01 -4.37500000E-01  6.25000000E-02
                      -6.25000000E-02  4.37500000E-01  1.87500000E-01
                      -4.37500000E-01 -1.87500000E-01  6.25000000E-02
                      -3.12500000E-01 -3.12500000E-01  1.87500000E-01
                      -1.87500000E-01 -4.37500000E-01  3.12500000E-01
                      -6.25000000E-02  4.37500000E-01  4.37500000E-01
                       4.37500000E-01 -6.25000000E-02  1.87500000E-01
                      -4.37500000E-01 -1.87500000E-01  3.12500000E-01
                      -3.12500000E-01 -3.12500000E-01  4.37500000E-01
                      -1.87500000E-01 -4.37500000E-01 -4.37500000E-01
                      -6.25000000E-02  4.37500000E-01 -3.12500000E-01
                       4.37500000E-01 -6.25000000E-02  4.37500000E-01
                      -4.37500000E-01 -1.87500000E-01 -4.37500000E-01
                      -3.12500000E-01 -3.12500000E-01 -3.12500000E-01
                      -1.87500000E-01 -4.37500000E-01 -1.87500000E-01
                      -6.25000000E-02  4.37500000E-01 -6.25000000E-02
                       4.37500000E-01 -6.25000000E-02 -3.12500000E-01
                      -4.37500000E-01 -1.87500000E-01 -1.87500000E-01
                      -3.12500000E-01 -3.12500000E-01 -6.25000000E-02
                       4.37500000E-01 -6.25000000E-02 -6.25000000E-02
                      -1.87500000E-01  3.12500000E-01  6.25000000E-02
                      -6.25000000E-02  1.87500000E-01  1.87500000E-01
                      -4.37500000E-01 -4.37500000E-01  6.25000000E-02
                      -3.12500000E-01  4.37500000E-01  1.87500000E-01
                      -1.87500000E-01  3.12500000E-01  3.12500000E-01
                      -6.25000000E-02  1.87500000E-01  4.37500000E-01
                       3.12500000E-01 -1.87500000E-01  6.25000000E-02
                       4.37500000E-01 -3.12500000E-01  1.87500000E-01
                      -4.37500000E-01 -4.37500000E-01  3.12500000E-01
                      -3.12500000E-01  4.37500000E-01  4.37500000E-01
                      -1.87500000E-01  3.12500000E-01 -4.37500000E-01
                      -6.25000000E-02  1.87500000E-01 -3.12500000E-01
                       1.87500000E-01 -6.25000000E-02  1.87500000E-01
                       3.12500000E-01 -1.87500000E-01  3.12500000E-01
                       outvar_i_n : Printing only first  50 k-points.
           kptopt1          1
           kptopt2          3
         kptrlatt        4    0    4      0    4    4     -4   -4    0
          kptrlen      2.44800000E+01
P           mkmem1          8
P           mkmem2        128
P          mkqmem1          8
P          mkqmem2        128
P          mk1mem1          8
P          mk1mem2        128
            natom           1
            nband1          6
            nband2          6
           nbdbuf1          0
           nbdbuf2          2
           ndtset           2
            ngfft          15      15      15
             nkpt1          8
             nkpt2        128
             nqpt1          0
             nqpt2          1
             nsym          48
           ntypat           1
              occ1     2.000000  2.000000  1.000000  0.000000  0.000000  0.000000
                       2.000000  2.000000  1.000000  0.000000  0.000000  0.000000
                       2.000000  2.000000  1.000000  0.000000  0.000000  0.000000
                       2.000000  2.000000  1.000000  0.000000  0.000000  0.000000
                       2.000000  2.000000  1.000000  0.000000  0.000000  0.000000
                       2.000000  2.000000  1.000000  0.000000  0.000000  0.000000
                       2.000000  2.000000  1.000000  0.000000  0.000000  0.000000
                       2.000000  2.000000  1.000000  0.000000  0.000000  0.000000
              occ2     2.000000  2.000000  1.000000  0.000000  0.000000  0.000000
                       2.000000  2.000000  1.000000  0.000000  0.000000  0.000000
                       2.000000  2.000000  1.000000  0.000000  0.000000  0.000000
                       2.000000  2.000000  1.000000  0.000000  0.000000  0.000000
                       2.000000  2.000000  1.000000  0.000000  0.000000  0.000000
                       2.000000  2.000000  1.000000  0.000000  0.000000  0.000000
                       2.000000  2.000000  1.000000  0.000000  0.000000  0.000000
                       2.000000  2.000000  1.000000  0.000000  0.000000  0.000000
                       2.000000  2.000000  1.000000  0.000000  0.000000  0.000000
                       2.000000  2.000000  1.000000  0.000000  0.000000  0.000000
                       2.000000  2.000000  1.000000  0.000000  0.000000  0.000000
                       2.000000  2.000000  1.000000  0.000000  0.000000  0.000000
                       2.000000  2.000000  1.000000  0.000000  0.000000  0.000000
                       2.000000  2.000000  1.000000  0.000000  0.000000  0.000000
                       2.000000  2.000000  1.000000  0.000000  0.000000  0.000000
                       2.000000  2.000000  1.000000  0.000000  0.000000  0.000000
                       2.000000  2.000000  1.000000  0.000000  0.000000  0.000000
                       2.000000  2.000000  1.000000  0.000000  0.000000  0.000000
                       2.000000  2.000000  1.000000  0.000000  0.000000  0.000000
                       2.000000  2.000000  1.000000  0.000000  0.000000  0.000000
                       2.000000  2.000000  1.000000  0.000000  0.000000  0.000000
                       2.000000  2.000000  1.000000  0.000000  0.000000  0.000000
                       2.000000  2.000000  1.000000  0.000000  0.000000  0.000000
                       2.000000  2.000000  1.000000  0.000000  0.000000  0.000000
                       2.000000  2.000000  1.000000  0.000000  0.000000  0.000000
                       2.000000  2.000000  1.000000  0.000000  0.000000  0.000000
                       2.000000  2.000000  1.000000  0.000000  0.000000  0.000000
                       2.000000  2.000000  1.000000  0.000000  0.000000  0.000000
                       2.000000  2.000000  1.000000  0.000000  0.000000  0.000000
                       2.000000  2.000000  1.000000  0.000000  0.000000  0.000000
                       2.000000  2.000000  1.000000  0.000000  0.000000  0.000000
                       2.000000  2.000000  1.000000  0.000000  0.000000  0.000000
                       2.000000  2.000000  1.000000  0.000000  0.000000  0.000000
                       2.000000  2.000000  1.000000  0.000000  0.000000  0.000000
                       2.000000  2.000000  1.000000  0.000000  0.000000  0.000000
                       2.000000  2.000000  1.000000  0.000000  0.000000  0.000000
                       2.000000  2.000000  1.000000  0.000000  0.000000  0.000000
                       2.000000  2.000000  1.000000  0.000000  0.000000  0.000000
                       2.000000  2.000000  1.000000  0.000000  0.000000  0.000000
                       2.000000  2.000000  1.000000  0.000000  0.000000  0.000000
                       2.000000  2.000000  1.000000  0.000000  0.000000  0.000000
                       2.000000  2.000000  1.000000  0.000000  0.000000  0.000000
                       2.000000  2.000000  1.000000  0.000000  0.000000  0.000000
                       2.000000  2.000000  1.000000  0.000000  0.000000  0.000000
                       2.000000  2.000000  1.000000  0.000000  0.000000  0.000000
                       2.000000  2.000000  1.000000  0.000000  0.000000  0.000000
                       2.000000  2.000000  1.000000  0.000000  0.000000  0.000000
                       2.000000  2.000000  1.000000  0.000000  0.000000  0.000000
                       2.000000  2.000000  1.000000  0.000000  0.000000  0.000000
                       2.000000  2.000000  1.000000  0.000000  0.000000  0.000000
                       prtocc : prtvol=0, do not print more k-points.
           occopt           4
        optdriver1          0
        optdriver2          1
              qpt1     0.00000000E+00  0.00000000E+00  0.00000000E+00
              qpt2    -1.25000000E-01  1.25000000E-01  1.25000000E-01
            rfdir1          0       0       0
            rfdir2          1       1       1
           rfphon1          0
           rfphon2          1
            rprim     -5.0000000000E-01  5.0000000000E-01  5.0000000000E-01
                       5.0000000000E-01 -5.0000000000E-01  5.0000000000E-01
                       5.0000000000E-01  5.0000000000E-01 -5.0000000000E-01
           shiftk      5.00000000E-01  5.00000000E-01  5.00000000E-01
          spgroup         229
           symrel      1  0  0   0  1  0   0  0  1      -1  0  0   0 -1  0   0  0 -1
                      -1 -1 -1   0  0  1   0  1  0       1  1  1   0  0 -1   0 -1  0
                       0  1  0   1  0  0  -1 -1 -1       0 -1  0  -1  0  0   1  1  1
                       0  0  1  -1 -1 -1   1  0  0       0  0 -1   1  1  1  -1  0  0
                       0  1  0   1  0  0   0  0  1       0 -1  0  -1  0  0   0  0 -1
                      -1 -1 -1   0  0  1   1  0  0       1  1  1   0  0 -1  -1  0  0
                       1  0  0   0  1  0  -1 -1 -1      -1  0  0   0 -1  0   1  1  1
                       0  0  1  -1 -1 -1   0  1  0       0  0 -1   1  1  1   0 -1  0
                      -1 -1 -1   1  0  0   0  0  1       1  1  1  -1  0  0   0  0 -1
                       0  1  0   0  0  1   1  0  0       0 -1  0   0  0 -1  -1  0  0
                       1  0  0  -1 -1 -1   0  1  0      -1  0  0   1  1  1   0 -1  0
                       0  0  1   0  1  0  -1 -1 -1       0  0 -1   0 -1  0   1  1  1
                       1  0  0  -1 -1 -1   0  0  1      -1  0  0   1  1  1   0  0 -1
                       0  1  0   0  0  1  -1 -1 -1       0 -1  0   0  0 -1   1  1  1
                      -1 -1 -1   1  0  0   0  1  0       1  1  1  -1  0  0   0 -1  0
                       0  0  1   0  1  0   1  0  0       0  0 -1   0 -1  0  -1  0  0
                       0  1  0  -1 -1 -1   0  0  1       0 -1  0   1  1  1   0  0 -1
                       1  0  0   0  0  1  -1 -1 -1      -1  0  0   0  0 -1   1  1  1
                      -1 -1 -1   0  1  0   1  0  0       1  1  1   0 -1  0  -1  0  0
                       0  0  1   1  0  0   0  1  0       0  0 -1  -1  0  0   0 -1  0
                      -1 -1 -1   0  1  0   0  0  1       1  1  1   0 -1  0   0  0 -1
                       1  0  0   0  0  1   0  1  0      -1  0  0   0  0 -1   0 -1  0
                       0  1  0  -1 -1 -1   1  0  0       0 -1  0   1  1  1  -1  0  0
                       0  0  1   1  0  0  -1 -1 -1       0  0 -1  -1  0  0   1  1  1
           tolvrs1     1.00000000E-16
           tolvrs2     1.00000000E-09
           tsmear      1.50000000E-02 Hartree
            typat      1
              wtk1       0.06250    0.18750    0.18750    0.06250    0.06250    0.18750
                         0.18750    0.06250
              wtk2       0.00781    0.00781    0.00781    0.00781    0.00781    0.00781
                         0.00781    0.00781    0.00781    0.00781    0.00781    0.00781
                         0.00781    0.00781    0.00781    0.00781    0.00781    0.00781
                         0.00781    0.00781    0.00781    0.00781    0.00781    0.00781
                         0.00781    0.00781    0.00781    0.00781    0.00781    0.00781
                         0.00781    0.00781    0.00781    0.00781    0.00781    0.00781
                         0.00781    0.00781    0.00781    0.00781    0.00781    0.00781
                         0.00781    0.00781    0.00781    0.00781    0.00781    0.00781
                         0.00781    0.00781
                       outvars : Printing only first  50 k-points.
            znucl       41.00000

================================================================================

 chkinp: Checking input parameters for consistency, jdtset=   1.

 chkinp: Checking input parameters for consistency, jdtset=   2.

================================================================================
== DATASET  1 ==================================================================
-   nproc =    1

 Exchange-correlation functional for the present dataset will be:
  LDA: new Teter (4/93) with spin-polarized option - ixc=1
 Citation for XC functional:
  S. Goedecker, M. Teter, J. Huetter, PRB 54, 1703 (1996)

 Real(R)+Recip(G) space primitive vectors, cartesian coordinates (Bohr,Bohr^-1):
 R(1)= -3.0600000  3.0600000  3.0600000  G(1)=  0.0000000  0.1633987  0.1633987
 R(2)=  3.0600000 -3.0600000  3.0600000  G(2)=  0.1633987  0.0000000  0.1633987
 R(3)=  3.0600000  3.0600000 -3.0600000  G(3)=  0.1633987  0.1633987  0.0000000
 Unit cell volume ucvol=  1.1461046E+02 bohr^3
 Angles (23,13,12)=  1.09471221E+02  1.09471221E+02  1.09471221E+02 degrees

 getcut: wavevector=  0.0000  0.0000  0.0000  ngfft=  15  15  15
         ecut(hartree)=      7.000   => boxcut(ratio)=   2.22914

 getcut : COMMENT -
  Note that boxcut > 2.2 ; recall that boxcut=Gcut(box)/Gcut(sphere) = 2
  is sufficient for exact treatment of convolution.
  Such a large boxcut is a waste : you could raise ecut
  e.g. ecut=    8.695826 Hartrees makes boxcut=2


--- Pseudopotential description ------------------------------------------------
- pspini: atom type   1  psp file is /home/gonze/ABINIT/ABINITv7.10.4/trunk/7.10.4-private/tests/Psps_for_tests/41nb.pspfhi
- pspatm: opening atomic psp file    /home/gonze/ABINIT/ABINITv7.10.4/trunk/7.10.4-private/tests/Psps_for_tests/41nb.pspfhi
- Niobium, fhi98PP : TM-type, LDA, l=0 local
- 41.00000   5.00000     10122                znucl, zion, pspdat
    6    7    2    0       539   0.00000      pspcod,pspxc,lmax,lloc,mmax,r2well
  No XC core correction.
  1.024700          amesh (Hamman grid)
 pspatm: epsatm=   80.47945735
         --- l  ekb(1:nproj) -->
             1    0.532418
             2   -3.945072
 pspatm: atomic psp has been read  and splines computed

   4.02397287E+02                                ecore*ucvol(ha*bohr**3)
--------------------------------------------------------------------------------

P newkpt: treating      6 bands with npw=      98 for ikpt=   1 by node    0
P newkpt: treating      6 bands with npw=      99 for ikpt=   2 by node    0
P newkpt: treating      6 bands with npw=     103 for ikpt=   3 by node    0
P newkpt: treating      6 bands with npw=      95 for ikpt=   4 by node    0
P newkpt: treating      6 bands with npw=      98 for ikpt=   5 by node    0
P newkpt: treating      6 bands with npw=     101 for ikpt=   6 by node    0
P newkpt: treating      6 bands with npw=     101 for ikpt=   7 by node    0
P newkpt: treating      6 bands with npw=     104 for ikpt=   8 by node    0

_setup2: Arith. and geom. avg. npw (full set) are     100.438     100.412

================================================================================

     iter   Etot(hartree)      deltaE(h)  residm     vres2
 ETOT  1  -4.9694629734748    -4.969E+00 5.463E-02 1.016E+00
 ETOT  2  -4.9720640756439    -2.601E-03 3.827E-04 2.074E-02
 ETOT  3  -4.9720715191205    -7.443E-06 6.826E-05 3.751E-04
 ETOT  4  -4.9720716376915    -1.186E-07 1.295E-06 2.005E-03
 ETOT  5  -4.9720717575509    -1.199E-07 3.594E-07 7.655E-05
 ETOT  6  -4.9720717784750    -2.092E-08 1.121E-08 5.328E-08
 ETOT  7  -4.9720717784808    -5.750E-12 4.229E-09 1.053E-07
 ETOT  8  -4.9720717784967    -1.589E-11 1.785E-10 2.628E-09
 ETOT  9  -4.9720717784981    -1.461E-12 6.078E-10 4.556E-11
 ETOT 10  -4.9720717784982    -2.842E-14 3.274E-11 8.519E-13
 ETOT 11  -4.9720717784981     2.309E-14 1.050E-10 4.164E-13
 ETOT 12  -4.9720717784982    -1.776E-14 5.729E-12 6.210E-15
 ETOT 13  -4.9720717784982     0.000E+00 1.833E-11 8.091E-19

 At SCF step   13       vres2   =  8.09E-19 < tolvrs=  1.00E-16 =>converged.

 Cartesian components of stress tensor (hartree/bohr^3)
  sigma(1 1)=  3.48114606E-03  sigma(3 2)=  0.00000000E+00
  sigma(2 2)=  3.48114606E-03  sigma(3 1)=  0.00000000E+00
  sigma(3 3)=  3.48114606E-03  sigma(2 1)=  0.00000000E+00

================================================================================

 ----iterations are completed or convergence reached----

 Mean square residual over all n,k,spin=   3.8264E-13; max=  1.8332E-11
  -0.0625 -0.0625  0.1875    1  3.10095E-21 kpt; spin; max resid(k); each band:
  3.10E-21 7.08E-22 7.07E-22 2.29E-21 2.17E-21 2.17E-21
  -0.0625 -0.0625  0.4375    1  6.95323E-20 kpt; spin; max resid(k); each band:
  3.94E-20 4.80E-22 6.95E-20 4.29E-21 4.05E-21 5.33E-20
  -0.1875 -0.1875  0.0625    1  2.40411E-20 kpt; spin; max resid(k); each band:
  2.40E-20 3.95E-21 1.58E-20 4.76E-21 1.05E-20 1.77E-20
  -0.1875 -0.1875 -0.4375    1  3.45598E-14 kpt; spin; max resid(k); each band:
  1.33E-19 5.13E-21 5.13E-21 1.15E-20 1.13E-20 3.46E-14
  -0.0625 -0.3125 -0.3125    1  7.36448E-20 kpt; spin; max resid(k); each band:
  1.62E-20 3.36E-21 3.28E-21 1.47E-20 1.43E-20 7.36E-20
  -0.1875 -0.4375  0.0625    1  1.43817E-17 kpt; spin; max resid(k); each band:
  5.03E-21 3.25E-21 1.36E-19 4.85E-21 2.48E-20 1.44E-17
  -0.3125 -0.3125  0.1875    1  7.06627E-20 kpt; spin; max resid(k); each band:
  7.07E-20 2.53E-21 1.92E-20 1.71E-21 1.39E-20 6.99E-20
  -0.4375 -0.4375  0.3125    1  1.83321E-11 kpt; spin; max resid(k); each band:
  3.23E-20 1.11E-20 5.72E-21 4.34E-20 6.39E-20 1.83E-11
 reduced coordinates (array xred) for    1 atoms
       0.000000000000      0.000000000000      0.000000000000
 rms dE/dt=  0.0000E+00; max dE/dt=  0.0000E+00; dE/dt below (all hartree)
    1       0.000000000000      0.000000000000      0.000000000000

 cartesian coordinates (angstrom) at end:
    1      0.00000000000000     0.00000000000000     0.00000000000000

 cartesian forces (hartree/bohr) at end:
    1     -0.00000000000000    -0.00000000000000    -0.00000000000000
 frms,max,avg= 0.0000000E+00 0.0000000E+00   0.000E+00  0.000E+00  0.000E+00 h/b

 cartesian forces (eV/Angstrom) at end:
    1     -0.00000000000000    -0.00000000000000    -0.00000000000000
 frms,max,avg= 0.0000000E+00 0.0000000E+00   0.000E+00  0.000E+00  0.000E+00 e/A
 length scales=  6.120000000000  6.120000000000  6.120000000000 bohr
              =  3.238564516571  3.238564516571  3.238564516571 angstroms
 prteigrs : about to open file t99o_DS1_EIG
 Fermi (or HOMO) energy (hartree) =  -0.22343   Average Vxc (hartree)=  -0.39836
 Eigenvalues (hartree) for nkpt=   8  k points:
 kpt#   1, nband=  6, wtk=  0.06250, kpt= -0.0625 -0.0625  0.1875 (reduced coord)
  -0.46483  -0.20504  -0.20504  -0.13239  -0.06393  -0.06393
      occupation numbers for kpt#   1
   2.00000   0.00001   0.00001   0.00000   0.00000   0.00000
 kpt#   2, nband=  6, wtk=  0.18750, kpt= -0.0625 -0.0625  0.4375 (reduced coord)
  -0.36627  -0.26700  -0.23756  -0.05639  -0.02036   0.02682
      occupation numbers for kpt#   2
   2.00000   2.00086   2.08663   0.00000   0.00000   0.00000
 kpt#   3, nband=  6, wtk=  0.18750, kpt= -0.1875 -0.1875  0.0625 (reduced coord)
  -0.39792  -0.24911  -0.21837  -0.12936  -0.07862  -0.04003
      occupation numbers for kpt#   3
   2.00000   2.07730   0.35411   0.00000   0.00000   0.00000
 kpt#   4, nband=  6, wtk=  0.06250, kpt= -0.1875 -0.1875 -0.4375 (reduced coord)
  -0.30126  -0.27799  -0.27799  -0.00884  -0.00884   0.15887
      occupation numbers for kpt#   4
   2.00000   2.00001   2.00001   0.00000   0.00000   0.00000
 kpt#   5, nband=  6, wtk=  0.06250, kpt= -0.0625 -0.3125 -0.3125 (reduced coord)
  -0.31640  -0.27207  -0.27207  -0.00924  -0.00924   0.15393
      occupation numbers for kpt#   5
   2.00000   2.00013   2.00013   0.00000   0.00000   0.00000
 kpt#   6, nband=  6, wtk=  0.18750, kpt= -0.1875 -0.4375  0.0625 (reduced coord)
  -0.34946  -0.25998  -0.24030  -0.09292  -0.00756   0.10341
      occupation numbers for kpt#   6
   2.00000   2.00762   2.13598   0.00000   0.00000   0.00000
 kpt#   7, nband=  6, wtk=  0.18750, kpt= -0.3125 -0.3125  0.1875 (reduced coord)
  -0.32421  -0.30566  -0.20005  -0.12177  -0.02982   0.04977
      occupation numbers for kpt#   7
   2.00000   2.00000   0.00407   0.00000   0.00000   0.00000
 kpt#   8, nband=  6, wtk=  0.06250, kpt= -0.4375 -0.4375  0.3125 (reduced coord)
  -0.34772  -0.34772  -0.13239  -0.02282  -0.02282   0.17562
      occupation numbers for kpt#   8
   2.00000   2.00000   0.00000   0.00000   0.00000   0.00000
 Fermi (or HOMO) energy (eV) =  -6.07989   Average Vxc (eV)= -10.83985
 Eigenvalues (   eV  ) for nkpt=   8  k points:
 kpt#   1, nband=  6, wtk=  0.06250, kpt= -0.0625 -0.0625  0.1875 (reduced coord)
 -12.64869  -5.57933  -5.57933  -3.60253  -1.73965  -1.73965
 kpt#   2, nband=  6, wtk=  0.18750, kpt= -0.0625 -0.0625  0.4375 (reduced coord)
  -9.96672  -7.26543  -6.46430  -1.53436  -0.55401   0.72980
 kpt#   3, nband=  6, wtk=  0.18750, kpt= -0.1875 -0.1875  0.0625 (reduced coord)
 -10.82789  -6.77864  -5.94228  -3.51997  -2.13923  -1.08940
 kpt#   4, nband=  6, wtk=  0.06250, kpt= -0.1875 -0.1875 -0.4375 (reduced coord)
  -8.19760  -7.56446  -7.56446  -0.24056  -0.24056   4.32307
 kpt#   5, nband=  6, wtk=  0.06250, kpt= -0.0625 -0.3125 -0.3125 (reduced coord)
  -8.60971  -7.40350  -7.40350  -0.25131  -0.25131   4.18862
 kpt#   6, nband=  6, wtk=  0.18750, kpt= -0.1875 -0.4375  0.0625 (reduced coord)
  -9.50928  -7.07443  -6.53881  -2.52837  -0.20567   2.81380
 kpt#   7, nband=  6, wtk=  0.18750, kpt= -0.3125 -0.3125  0.1875 (reduced coord)
  -8.82225  -8.31744  -5.44371  -3.31359  -0.81137   1.35436
 kpt#   8, nband=  6, wtk=  0.06250, kpt= -0.4375 -0.4375  0.3125 (reduced coord)
  -9.46196  -9.46196  -3.60257  -0.62085  -0.62085   4.77893
 Total charge density [el/Bohr^3]
,     Maximum=    6.9987E-02  at reduced coord.    0.7333    0.7333    0.7333
,Next maximum=    6.9987E-02  at reduced coord.    0.0000    0.0000    0.7333
,     Minimum=    7.5128E-04  at reduced coord.    0.0000    0.0000    0.0000
,Next minimum=    3.0128E-03  at reduced coord.    0.0667    0.0000    0.0000
,  Integrated=    5.0000E+00

--------------------------------------------------------------------------------
 Components of total free energy (in Hartree) :

    Kinetic energy  =  4.24096116147390E+00
    Hartree energy  =  1.01994201187942E-02
    XC energy       = -1.54939768379957E+00
    Ewald energy    = -7.43307485602196E+00
    PspCore energy  =  3.51099954326083E+00
    Loc. psp. energy=  2.25899821466521E-01
    NL   psp  energy= -3.97881713219869E+00
    >>>>> Internal E= -4.97322972570018E+00

    -kT*entropy     =  1.15794720202225E-03
    >>>>>>>>> Etotal= -4.97207177849815E+00

 Other information on the energy :
    Total energy(eV)= -1.35296953744186E+02 ; Band energy (Ha)=  -1.5124734116E+00
--------------------------------------------------------------------------------

 Cartesian components of stress tensor (hartree/bohr^3)
  sigma(1 1)=  3.48114606E-03  sigma(3 2)=  0.00000000E+00
  sigma(2 2)=  3.48114606E-03  sigma(3 1)=  0.00000000E+00
  sigma(3 3)=  3.48114606E-03  sigma(2 1)=  0.00000000E+00

-Cartesian components of stress tensor (GPa)         [Pressure= -1.0242E+02 GPa]
- sigma(1 1)=  1.02418836E+02  sigma(3 2)=  0.00000000E+00
- sigma(2 2)=  1.02418836E+02  sigma(3 1)=  0.00000000E+00
- sigma(3 3)=  1.02418836E+02  sigma(2 1)=  0.00000000E+00

================================================================================
== DATASET  2 ==================================================================
-   nproc =    1

 mkfilename : getwfk/=0, take file _WFK from output of DATASET   1.

 Exchange-correlation functional for the present dataset will be:
  LDA: new Teter (4/93) with spin-polarized option - ixc=1
 Citation for XC functional:
  S. Goedecker, M. Teter, J. Huetter, PRB 54, 1703 (1996)

 Real(R)+Recip(G) space primitive vectors, cartesian coordinates (Bohr,Bohr^-1):
 R(1)= -3.0600000  3.0600000  3.0600000  G(1)=  0.0000000  0.1633987  0.1633987
 R(2)=  3.0600000 -3.0600000  3.0600000  G(2)=  0.1633987  0.0000000  0.1633987
 R(3)=  3.0600000  3.0600000 -3.0600000  G(3)=  0.1633987  0.1633987  0.0000000
 Unit cell volume ucvol=  1.1461046E+02 bohr^3
 Angles (23,13,12)=  1.09471221E+02  1.09471221E+02  1.09471221E+02 degrees
 setup1 : take into account q-point for computing boxcut.

 getcut: wavevector= -0.1250  0.1250  0.1250  ngfft=  15  15  15
         ecut(hartree)=      7.000   => boxcut(ratio)=   2.18758
--------------------------------------------------------------------------------

-inwffil : will read wavefunctions from disk file t99o_DS1_WFK
- newkpt: read input wf with ikpt,npw=   1      98, make ikpt,npw=   1      98
- newkpt: read input wf with ikpt,npw=   2      99, make ikpt,npw=   2      99
- newkpt: read input wf with ikpt,npw=   2      99, make ikpt,npw=   3      99
- newkpt: read input wf with ikpt,npw=   1      98, make ikpt,npw=   4      98
- newkpt: read input wf with ikpt,npw=   3     103, make ikpt,npw=   5     103
- newkpt: read input wf with ikpt,npw=   3     103, make ikpt,npw=   6     103
- newkpt: read input wf with ikpt,npw=   3     103, make ikpt,npw=   7     103
- newkpt: read input wf with ikpt,npw=   3     103, make ikpt,npw=   8     103
- newkpt: read input wf with ikpt,npw=   2      99, make ikpt,npw=   9      99
- newkpt: read input wf with ikpt,npw=   2      99, make ikpt,npw=  10      99
- newkpt: read input wf with ikpt,npw=   4      95, make ikpt,npw=  11      95
- newkpt: read input wf with ikpt,npw=   5      98, make ikpt,npw=  12      98
- newkpt: read input wf with ikpt,npw=   5      98, make ikpt,npw=  13      98
- newkpt: read input wf with ikpt,npw=   4      95, make ikpt,npw=  14      95
- newkpt: read input wf with ikpt,npw=   2      99, make ikpt,npw=  15      99
- newkpt: read input wf with ikpt,npw=   2      99, make ikpt,npw=  16      99
- newkpt: read input wf with ikpt,npw=   6     101, make ikpt,npw=  17     101
- newkpt: read input wf with ikpt,npw=   6     101, make ikpt,npw=  18     101
- newkpt: read input wf with ikpt,npw=   6     101, make ikpt,npw=  19     101
- newkpt: read input wf with ikpt,npw=   7     101, make ikpt,npw=  20     101
- newkpt: read input wf with ikpt,npw=   7     101, make ikpt,npw=  21     101
- newkpt: read input wf with ikpt,npw=   6     101, make ikpt,npw=  22     101
- newkpt: read input wf with ikpt,npw=   6     101, make ikpt,npw=  23     101
- newkpt: read input wf with ikpt,npw=   7     101, make ikpt,npw=  24     101
- newkpt: read input wf with ikpt,npw=   7     101, make ikpt,npw=  25     101
- newkpt: read input wf with ikpt,npw=   6     101, make ikpt,npw=  26     101
- newkpt: read input wf with ikpt,npw=   2      99, make ikpt,npw=  27      99
- newkpt: read input wf with ikpt,npw=   6     101, make ikpt,npw=  28     101
- newkpt: read input wf with ikpt,npw=   6     101, make ikpt,npw=  29     101
- newkpt: read input wf with ikpt,npw=   5      98, make ikpt,npw=  30      98
- newkpt: read input wf with ikpt,npw=   4      95, make ikpt,npw=  31      95
- newkpt: read input wf with ikpt,npw=   2      99, make ikpt,npw=  32      99
- newkpt: read input wf with ikpt,npw=   2      99, make ikpt,npw=  33      99
- newkpt: read input wf with ikpt,npw=   4      95, make ikpt,npw=  34      95
- newkpt: read input wf with ikpt,npw=   5      98, make ikpt,npw=  35      98
- newkpt: read input wf with ikpt,npw=   2      99, make ikpt,npw=  36      99
- newkpt: read input wf with ikpt,npw=   3     103, make ikpt,npw=  37     103
- newkpt: read input wf with ikpt,npw=   3     103, make ikpt,npw=  38     103
- newkpt: read input wf with ikpt,npw=   6     101, make ikpt,npw=  39     101
- newkpt: read input wf with ikpt,npw=   7     101, make ikpt,npw=  40     101
- newkpt: read input wf with ikpt,npw=   7     101, make ikpt,npw=  41     101
- newkpt: read input wf with ikpt,npw=   6     101, make ikpt,npw=  42     101
- newkpt: read input wf with ikpt,npw=   3     103, make ikpt,npw=  43     103
- newkpt: read input wf with ikpt,npw=   7     101, make ikpt,npw=  44     101
- newkpt: read input wf with ikpt,npw=   8     104, make ikpt,npw=  45     104
- newkpt: read input wf with ikpt,npw=   8     104, make ikpt,npw=  46     104
- newkpt: read input wf with ikpt,npw=   7     101, make ikpt,npw=  47     101
- newkpt: read input wf with ikpt,npw=   3     103, make ikpt,npw=  48     103
- newkpt: read input wf with ikpt,npw=   3     103, make ikpt,npw=  49     103
- newkpt: read input wf with ikpt,npw=   7     101, make ikpt,npw=  50     101
- newkpt : prtvol=0 or 1, do not print more k-points.


 ==>  initialize data related to q vector <== 

 The list of irreducible perturbations for this q vector is:
    1)    idir= 1    ipert=   1

================================================================================

 The perturbation idir=   2  ipert=   1 is
 symmetric of a previously calculated perturbation.
 So, its SCF calculation is not needed.


 The perturbation idir=   3  ipert=   1 is
 symmetric of a previously calculated perturbation.
 So, its SCF calculation is not needed.


--------------------------------------------------------------------------------
 Perturbation wavevector (in red.coord.)  -0.125000  0.125000  0.125000
 Perturbation : displacement of atom   1   along direction   1
 Found     2 symmetries that leave the perturbation invariant.
 symkpt : the number of k-points, thanks to the symmetries,
 is reduced to    80 .

--------------------------------------------------------------------------------

-inwffil : will read wavefunctions from disk file t99o_DS1_WFK
- newkpt: read input wf with ikpt,npw=   1      98, make ikpt,npw=   1      98
- newkpt: read input wf with ikpt,npw=   2      99, make ikpt,npw=   2      99
- newkpt: read input wf with ikpt,npw=   2      99, make ikpt,npw=   3      99
- newkpt: read input wf with ikpt,npw=   1      98, make ikpt,npw=   4      98
- newkpt: read input wf with ikpt,npw=   3     103, make ikpt,npw=   5     103
- newkpt: read input wf with ikpt,npw=   3     103, make ikpt,npw=   6     103
- newkpt: read input wf with ikpt,npw=   3     103, make ikpt,npw=   7     103
- newkpt: read input wf with ikpt,npw=   3     103, make ikpt,npw=   8     103
- newkpt: read input wf with ikpt,npw=   2      99, make ikpt,npw=   9      99
- newkpt: read input wf with ikpt,npw=   2      99, make ikpt,npw=  10      99
- newkpt: read input wf with ikpt,npw=   4      95, make ikpt,npw=  11      95
- newkpt: read input wf with ikpt,npw=   5      98, make ikpt,npw=  12      98
- newkpt: read input wf with ikpt,npw=   5      98, make ikpt,npw=  13      98
- newkpt: read input wf with ikpt,npw=   4      95, make ikpt,npw=  14      95
- newkpt: read input wf with ikpt,npw=   2      99, make ikpt,npw=  15      99
- newkpt: read input wf with ikpt,npw=   6     101, make ikpt,npw=  16     101
- newkpt: read input wf with ikpt,npw=   6     101, make ikpt,npw=  17     101
- newkpt: read input wf with ikpt,npw=   6     101, make ikpt,npw=  18     101
- newkpt: read input wf with ikpt,npw=   7     101, make ikpt,npw=  19     101
- newkpt: read input wf with ikpt,npw=   7     101, make ikpt,npw=  20     101
- newkpt: read input wf with ikpt,npw=   6     101, make ikpt,npw=  21     101
- newkpt: read input wf with ikpt,npw=   6     101, make ikpt,npw=  22     101
- newkpt: read input wf with ikpt,npw=   7     101, make ikpt,npw=  23     101
- newkpt: read input wf with ikpt,npw=   7     101, make ikpt,npw=  24     101
- newkpt: read input wf with ikpt,npw=   6     101, make ikpt,npw=  25     101
- newkpt: read input wf with ikpt,npw=   6     101, make ikpt,npw=  26     101
- newkpt: read input wf with ikpt,npw=   6     101, make ikpt,npw=  27     101
- newkpt: read input wf with ikpt,npw=   5      98, make ikpt,npw=  28      98
- newkpt: read input wf with ikpt,npw=   2      99, make ikpt,npw=  29      99
- newkpt: read input wf with ikpt,npw=   4      95, make ikpt,npw=  30      95
- newkpt: read input wf with ikpt,npw=   2      99, make ikpt,npw=  31      99
- newkpt: read input wf with ikpt,npw=   3     103, make ikpt,npw=  32     103
- newkpt: read input wf with ikpt,npw=   3     103, make ikpt,npw=  33     103
- newkpt: read input wf with ikpt,npw=   6     101, make ikpt,npw=  34     101
- newkpt: read input wf with ikpt,npw=   7     101, make ikpt,npw=  35     101
- newkpt: read input wf with ikpt,npw=   7     101, make ikpt,npw=  36     101
- newkpt: read input wf with ikpt,npw=   3     103, make ikpt,npw=  37     103
- newkpt: read input wf with ikpt,npw=   7     101, make ikpt,npw=  38     101
- newkpt: read input wf with ikpt,npw=   8     104, make ikpt,npw=  39     104
- newkpt: read input wf with ikpt,npw=   8     104, make ikpt,npw=  40     104
- newkpt: read input wf with ikpt,npw=   3     103, make ikpt,npw=  41     103
- newkpt: read input wf with ikpt,npw=   7     101, make ikpt,npw=  42     101
- newkpt: read input wf with ikpt,npw=   8     104, make ikpt,npw=  43     104
- newkpt: read input wf with ikpt,npw=   8     104, make ikpt,npw=  44     104
- newkpt: read input wf with ikpt,npw=   6     101, make ikpt,npw=  45     101
- newkpt: read input wf with ikpt,npw=   7     101, make ikpt,npw=  46     101
- newkpt: read input wf with ikpt,npw=   7     101, make ikpt,npw=  47     101
- newkpt: read input wf with ikpt,npw=   3     103, make ikpt,npw=  48     103
- newkpt: read input wf with ikpt,npw=   3     103, make ikpt,npw=  49     103
- newkpt: read input wf with ikpt,npw=   1      98, make ikpt,npw=  50      98
- newkpt : prtvol=0 or 1, do not print more k-points.

--------------------------------------------------------------------------------

-inwffil : will read wavefunctions from disk file t99o_DS1_WFK
- newkpt: read input wf with ikpt,npw=   3     103, make ikpt,npw=   1     103
- newkpt: read input wf with ikpt,npw=   6     101, make ikpt,npw=   2     101
- newkpt: read input wf with ikpt,npw=   3     103, make ikpt,npw=   3     103
- newkpt: read input wf with ikpt,npw=   1      98, make ikpt,npw=   4      98
- newkpt: read input wf with ikpt,npw=   3     103, make ikpt,npw=   5     103
- newkpt: read input wf with ikpt,npw=   3     103, make ikpt,npw=   6     103
- newkpt: read input wf with ikpt,npw=   2      99, make ikpt,npw=   7      99
- newkpt: read input wf with ikpt,npw=   2      99, make ikpt,npw=   8      99
- newkpt: read input wf with ikpt,npw=   4      95, make ikpt,npw=   9      95
- newkpt: read input wf with ikpt,npw=   6     101, make ikpt,npw=  10     101
- newkpt: read input wf with ikpt,npw=   5      98, make ikpt,npw=  11      98
- newkpt: read input wf with ikpt,npw=   4      95, make ikpt,npw=  12      95
- newkpt: read input wf with ikpt,npw=   6     101, make ikpt,npw=  13     101
- newkpt: read input wf with ikpt,npw=   2      99, make ikpt,npw=  14      99
- newkpt: read input wf with ikpt,npw=   2      99, make ikpt,npw=  15      99
- newkpt: read input wf with ikpt,npw=   7     101, make ikpt,npw=  16     101
- newkpt: read input wf with ikpt,npw=   7     101, make ikpt,npw=  17     101
- newkpt: read input wf with ikpt,npw=   6     101, make ikpt,npw=  18     101
- newkpt: read input wf with ikpt,npw=   7     101, make ikpt,npw=  19     101
- newkpt: read input wf with ikpt,npw=   7     101, make ikpt,npw=  20     101
- newkpt: read input wf with ikpt,npw=   6     101, make ikpt,npw=  21     101
- newkpt: read input wf with ikpt,npw=   5      98, make ikpt,npw=  22      98
- newkpt: read input wf with ikpt,npw=   6     101, make ikpt,npw=  23     101
- newkpt: read input wf with ikpt,npw=   6     101, make ikpt,npw=  24     101
- newkpt: read input wf with ikpt,npw=   5      98, make ikpt,npw=  25      98
- newkpt: read input wf with ikpt,npw=   2      99, make ikpt,npw=  26      99
- newkpt: read input wf with ikpt,npw=   2      99, make ikpt,npw=  27      99
- newkpt: read input wf with ikpt,npw=   4      95, make ikpt,npw=  28      95
- newkpt: read input wf with ikpt,npw=   3     103, make ikpt,npw=  29     103
- newkpt: read input wf with ikpt,npw=   2      99, make ikpt,npw=  30      99
- newkpt: read input wf with ikpt,npw=   2      99, make ikpt,npw=  31      99
- newkpt: read input wf with ikpt,npw=   7     101, make ikpt,npw=  32     101
- newkpt: read input wf with ikpt,npw=   7     101, make ikpt,npw=  33     101
- newkpt: read input wf with ikpt,npw=   7     101, make ikpt,npw=  34     101
- newkpt: read input wf with ikpt,npw=   8     104, make ikpt,npw=  35     104
- newkpt: read input wf with ikpt,npw=   8     104, make ikpt,npw=  36     104
- newkpt: read input wf with ikpt,npw=   3     103, make ikpt,npw=  37     103
- newkpt: read input wf with ikpt,npw=   7     101, make ikpt,npw=  38     101
- newkpt: read input wf with ikpt,npw=   8     104, make ikpt,npw=  39     104
- newkpt: read input wf with ikpt,npw=   8     104, make ikpt,npw=  40     104
- newkpt: read input wf with ikpt,npw=   2      99, make ikpt,npw=  41      99
- newkpt: read input wf with ikpt,npw=   6     101, make ikpt,npw=  42     101
- newkpt: read input wf with ikpt,npw=   7     101, make ikpt,npw=  43     101
- newkpt: read input wf with ikpt,npw=   7     101, make ikpt,npw=  44     101
- newkpt: read input wf with ikpt,npw=   2      99, make ikpt,npw=  45      99
- newkpt: read input wf with ikpt,npw=   3     103, make ikpt,npw=  46     103
- newkpt: read input wf with ikpt,npw=   3     103, make ikpt,npw=  47     103
- newkpt: read input wf with ikpt,npw=   1      98, make ikpt,npw=  48      98
- newkpt: read input wf with ikpt,npw=   1      98, make ikpt,npw=  49      98
- newkpt: read input wf with ikpt,npw=   1      98, make ikpt,npw=  50      98
- newkpt : prtvol=0 or 1, do not print more k-points.

 loper3 : total number of electrons, from k and k+q
  fully or partially occupied states are    5.000000E+00 and    5.000000E+00.
 Initialisation of the first-order wave-functions :
  ireadwf=   0
P newkpt: treating      6 bands with npw=     103 for ikpt=   1 by node    0
P newkpt: treating      6 bands with npw=     101 for ikpt=   2 by node    0
P newkpt: treating      6 bands with npw=     103 for ikpt=   3 by node    0
P newkpt: treating      6 bands with npw=      98 for ikpt=   4 by node    0
P newkpt: treating      6 bands with npw=     103 for ikpt=   5 by node    0
P newkpt: treating      6 bands with npw=     103 for ikpt=   6 by node    0
P newkpt: treating      6 bands with npw=      99 for ikpt=   7 by node    0
P newkpt: treating      6 bands with npw=      99 for ikpt=   8 by node    0
P newkpt: treating      6 bands with npw=      95 for ikpt=   9 by node    0
P newkpt: treating      6 bands with npw=     101 for ikpt=  10 by node    0
P newkpt: treating      6 bands with npw=      98 for ikpt=  11 by node    0
P newkpt: treating      6 bands with npw=      95 for ikpt=  12 by node    0
P newkpt: treating      6 bands with npw=     101 for ikpt=  13 by node    0
P newkpt: treating      6 bands with npw=      99 for ikpt=  14 by node    0
P newkpt: treating      6 bands with npw=      99 for ikpt=  15 by node    0
P newkpt: treating      6 bands with npw=     101 for ikpt=  16 by node    0
P newkpt: treating      6 bands with npw=     101 for ikpt=  17 by node    0
P newkpt: treating      6 bands with npw=     101 for ikpt=  18 by node    0
P newkpt: treating      6 bands with npw=     101 for ikpt=  19 by node    0
P newkpt: treating      6 bands with npw=     101 for ikpt=  20 by node    0
P newkpt: treating      6 bands with npw=     101 for ikpt=  21 by node    0
P newkpt: treating      6 bands with npw=      98 for ikpt=  22 by node    0
P newkpt: treating      6 bands with npw=     101 for ikpt=  23 by node    0
P newkpt: treating      6 bands with npw=     101 for ikpt=  24 by node    0
P newkpt: treating      6 bands with npw=      98 for ikpt=  25 by node    0
P newkpt: treating      6 bands with npw=      99 for ikpt=  26 by node    0
P newkpt: treating      6 bands with npw=      99 for ikpt=  27 by node    0
P newkpt: treating      6 bands with npw=      95 for ikpt=  28 by node    0
P newkpt: treating      6 bands with npw=     103 for ikpt=  29 by node    0
P newkpt: treating      6 bands with npw=      99 for ikpt=  30 by node    0
P newkpt: treating      6 bands with npw=      99 for ikpt=  31 by node    0
P newkpt: treating      6 bands with npw=     101 for ikpt=  32 by node    0
P newkpt: treating      6 bands with npw=     101 for ikpt=  33 by node    0
P newkpt: treating      6 bands with npw=     101 for ikpt=  34 by node    0
P newkpt: treating      6 bands with npw=     104 for ikpt=  35 by node    0
P newkpt: treating      6 bands with npw=     104 for ikpt=  36 by node    0
P newkpt: treating      6 bands with npw=     103 for ikpt=  37 by node    0
P newkpt: treating      6 bands with npw=     101 for ikpt=  38 by node    0
P newkpt: treating      6 bands with npw=     104 for ikpt=  39 by node    0
P newkpt: treating      6 bands with npw=     104 for ikpt=  40 by node    0
P newkpt: treating      6 bands with npw=      99 for ikpt=  41 by node    0
P newkpt: treating      6 bands with npw=     101 for ikpt=  42 by node    0
P newkpt: treating      6 bands with npw=     101 for ikpt=  43 by node    0
P newkpt: treating      6 bands with npw=     101 for ikpt=  44 by node    0
P newkpt: treating      6 bands with npw=      99 for ikpt=  45 by node    0
P newkpt: treating      6 bands with npw=     103 for ikpt=  46 by node    0
P newkpt: treating      6 bands with npw=     103 for ikpt=  47 by node    0
P newkpt: treating      6 bands with npw=      98 for ikpt=  48 by node    0
P newkpt: treating      6 bands with npw=      98 for ikpt=  49 by node    0
P newkpt: treating      6 bands with npw=      98 for ikpt=  50 by node    0
 newkpt: prtvol=0 or 1, do not print more k-points.


     iter   2DEtotal(Ha)        deltaE(Ha) residm    vres2
-ETOT  1   30335.038306913      2.992E+04 1.772E+00 1.718E+08
 ETOT  2   97785.939463192      6.745E+04 6.368E+00 5.508E+08
 ETOT  3   10.932685543240     -9.778E+04 2.045E+00 4.020E+03
 ETOT  4   45.191988349179      3.426E+01 5.321E-02 2.398E+05
 ETOT  5   2.7863022800614     -4.241E+01 9.125E-04 3.307E+00
 ETOT  6   2.7870955227031      7.932E-04 2.581E-06 8.192E+00
 ETOT  7   2.7856529488950     -1.443E-03 1.313E-07 9.185E-03
 ETOT  8   2.7856375999023     -1.535E-05 4.362E-08 1.751E-02
 ETOT  9   2.7856338926780     -3.707E-06 7.976E-09 2.864E-04
 ETOT 10   2.7856338555501     -3.713E-08 9.336E-11 1.434E-04
 ETOT 11   2.7856338279426     -2.761E-08 1.815E-11 3.722E-07
 ETOT 12   2.7856338297053      1.763E-09 1.487E-12 1.418E-05
 ETOT 13   2.7856338279479     -1.757E-09 2.780E-13 4.150E-06
 ETOT 14   2.7856338274209     -5.271E-10 2.985E-14 1.107E-06
 ETOT 15   2.7856338273691     -5.184E-11 4.296E-13 7.420E-07
 ETOT 16   2.7856338273316     -3.746E-11 5.952E-14 6.192E-07
 ETOT 17   2.7856338272334     -9.817E-11 1.205E-14 8.327E-08
 ETOT 18   2.7856338272190     -1.438E-11 3.098E-15 4.061E-10

 At SCF step   18       vres2   =  4.06E-10 < tolvrs=  1.00E-09 =>converged.
================================================================================

 ----iterations are completed or convergence reached----

 Mean square residual over all n,k,spin=  -3.3333E-02; max=  3.0979E-15
  -0.0625 -0.0625  0.1875    1  2.81654E-16 kpt; spin; max resid(k); each band:
  1.15E-17 2.58E-16 2.82E-16 3.14E-17-1.00E-01-1.00E-01
  -0.0625 -0.0625  0.4375    1  1.22180E-15 kpt; spin; max resid(k); each band:
  6.76E-17 2.47E-17 5.24E-16 1.22E-15-1.00E-01-1.00E-01
  -0.0625 -0.0625 -0.3125    1  2.12765E-16 kpt; spin; max resid(k); each band:
  2.05E-17 2.00E-17 9.15E-17 2.13E-16-1.00E-01-1.00E-01
  -0.0625 -0.0625 -0.0625    1  2.72141E-16 kpt; spin; max resid(k); each band:
  1.58E-17 1.96E-17 1.64E-17 2.72E-16-1.00E-01-1.00E-01
  -0.1875 -0.1875  0.0625    1  1.85114E-16 kpt; spin; max resid(k); each band:
  2.14E-17 5.00E-17 2.70E-17 1.85E-16-1.00E-01-1.00E-01
  -0.0625 -0.3125  0.1875    1  1.89476E-16 kpt; spin; max resid(k); each band:
  2.36E-17 4.13E-17 2.02E-17 1.89E-16-1.00E-01-1.00E-01
  -0.3125 -0.0625  0.1875    1  6.01248E-16 kpt; spin; max resid(k); each band:
  1.95E-17 5.48E-17 1.75E-16 6.01E-16-1.00E-01-1.00E-01
  -0.1875 -0.1875  0.3125    1  5.06687E-16 kpt; spin; max resid(k); each band:
  1.92E-17 5.76E-17 1.66E-16 5.07E-16-1.00E-01-1.00E-01
  -0.0625 -0.3125  0.4375    1  1.10818E-15 kpt; spin; max resid(k); each band:
  9.26E-17 6.36E-17 1.32E-16 1.11E-15-1.00E-01-1.00E-01
  -0.3125 -0.0625  0.4375    1  6.91651E-16 kpt; spin; max resid(k); each band:
  1.54E-16 1.88E-16 2.35E-16 6.92E-16-1.00E-01-1.00E-01
  -0.1875 -0.1875 -0.4375    1  3.09787E-15 kpt; spin; max resid(k); each band:
  2.37E-16 3.72E-16 1.35E-16 3.10E-15-1.00E-01-1.00E-01
  -0.0625 -0.3125 -0.3125    1  1.30098E-15 kpt; spin; max resid(k); each band:
  2.88E-17 1.25E-16 2.78E-16 1.30E-15-1.00E-01-1.00E-01
  -0.3125 -0.0625 -0.3125    1  1.54788E-15 kpt; spin; max resid(k); each band:
  2.29E-16 1.49E-16 1.68E-16 1.55E-15-1.00E-01-1.00E-01
  -0.1875 -0.1875 -0.1875    1  1.04204E-15 kpt; spin; max resid(k); each band:
  6.09E-17 7.45E-17 4.64E-17 1.04E-15-1.00E-01-1.00E-01
  -0.3125 -0.0625 -0.0625    1  7.14319E-16 kpt; spin; max resid(k); each band:
  6.39E-16 1.67E-17 3.11E-16 7.14E-16-1.00E-01-1.00E-01
  -0.1875 -0.4375  0.0625    1  2.58114E-16 kpt; spin; max resid(k); each band:
  6.25E-17 2.86E-17 2.58E-16 1.78E-16-1.00E-01-1.00E-01
  -0.0625  0.4375  0.1875    1  2.44620E-16 kpt; spin; max resid(k); each band:
  6.37E-17 1.00E-16 2.45E-16 1.72E-16-1.00E-01-1.00E-01
  -0.4375 -0.1875  0.0625    1  6.78440E-16 kpt; spin; max resid(k); each band:
  1.97E-16 7.50E-17 5.71E-17 6.78E-16-1.00E-01-1.00E-01
  -0.3125 -0.3125  0.1875    1  3.57426E-16 kpt; spin; max resid(k); each band:
  3.57E-16 1.20E-16 8.04E-17 8.50E-17-1.00E-01-1.00E-01
  -0.1875 -0.4375  0.3125    1  1.20273E-16 kpt; spin; max resid(k); each band:
  3.91E-17 1.20E-16 7.53E-17 1.04E-16-1.00E-01-1.00E-01
  -0.0625  0.4375  0.4375    1  6.84898E-16 kpt; spin; max resid(k); each band:
  4.52E-16 9.63E-17 1.36E-17 6.85E-16-1.00E-01-1.00E-01
   0.4375 -0.0625  0.1875    1  7.44804E-16 kpt; spin; max resid(k); each band:
  4.20E-16 1.90E-16 2.90E-16 7.45E-16-1.00E-01-1.00E-01
  -0.4375 -0.1875  0.3125    1  3.67487E-16 kpt; spin; max resid(k); each band:
  2.30E-16 1.81E-16 1.67E-16 3.67E-16-1.00E-01-1.00E-01
  -0.3125 -0.3125  0.4375    1  2.07538E-16 kpt; spin; max resid(k); each band:
  2.08E-16 1.68E-16 1.34E-16 1.78E-16-1.00E-01-1.00E-01
  -0.1875 -0.4375 -0.4375    1  4.84273E-16 kpt; spin; max resid(k); each band:
  4.84E-16 2.24E-16 8.95E-17 4.34E-16-1.00E-01-1.00E-01
   0.4375 -0.0625  0.4375    1  3.55185E-16 kpt; spin; max resid(k); each band:
  4.00E-17 2.31E-17 3.55E-16 3.48E-16-1.00E-01-1.00E-01
  -0.4375 -0.1875 -0.4375    1  2.97418E-16 kpt; spin; max resid(k); each band:
  4.82E-17 1.99E-17 2.76E-16 2.97E-16-1.00E-01-1.00E-01
  -0.3125 -0.3125 -0.3125    1  1.53231E-15 kpt; spin; max resid(k); each band:
  5.46E-17 7.81E-17 1.60E-16 1.53E-15-1.00E-01-1.00E-01
   0.4375 -0.0625 -0.3125    1  1.97502E-16 kpt; spin; max resid(k); each band:
  1.93E-17 2.08E-17 7.73E-17 1.98E-16-1.00E-01-1.00E-01
  -0.4375 -0.1875 -0.1875    1  1.01479E-15 kpt; spin; max resid(k); each band:
  1.33E-16 1.18E-16 7.70E-17 1.01E-15-1.00E-01-1.00E-01
   0.4375 -0.0625 -0.0625    1  1.02353E-15 kpt; spin; max resid(k); each band:
  2.02E-16 1.85E-17 8.89E-17 1.02E-15-1.00E-01-1.00E-01
  -0.1875  0.3125  0.0625    1  1.02460E-16 kpt; spin; max resid(k); each band:
  2.05E-17 8.08E-17 8.82E-17 1.02E-16-1.00E-01-1.00E-01
  -0.0625  0.1875  0.1875    1  8.36519E-17 kpt; spin; max resid(k); each band:
  2.67E-17 1.95E-17 7.31E-17 8.37E-17-1.00E-01-1.00E-01
  -0.4375 -0.4375  0.0625    1  2.07628E-16 kpt; spin; max resid(k); each band:
  5.44E-17 1.06E-16 2.05E-16 2.08E-16-1.00E-01-1.00E-01
  -0.3125  0.4375  0.1875    1  3.16802E-16 kpt; spin; max resid(k); each band:
  2.73E-16 5.40E-17 3.17E-16 2.07E-16-1.00E-01-1.00E-01
  -0.1875  0.3125  0.3125    1  5.46256E-16 kpt; spin; max resid(k); each band:
  2.82E-16 5.46E-16 2.88E-16 4.91E-17-1.00E-01-1.00E-01
   0.3125 -0.1875  0.0625    1  1.85525E-16 kpt; spin; max resid(k); each band:
  2.27E-17 4.94E-17 1.67E-17 1.86E-16-1.00E-01-1.00E-01
   0.4375 -0.3125  0.1875    1  2.02298E-16 kpt; spin; max resid(k); each band:
  2.02E-16 1.47E-16 6.95E-17 8.29E-17-1.00E-01-1.00E-01
  -0.4375 -0.4375  0.3125    1  7.58313E-16 kpt; spin; max resid(k); each band:
  1.40E-16 2.65E-16 4.04E-16 7.58E-16-1.00E-01-1.00E-01
  -0.3125  0.4375  0.4375    1  9.63583E-16 kpt; spin; max resid(k); each band:
  8.81E-17 2.71E-16 4.78E-16 9.64E-16-1.00E-01-1.00E-01
   0.1875 -0.0625  0.1875    1  6.40510E-16 kpt; spin; max resid(k); each band:
  2.77E-16 3.59E-17 8.10E-17 6.41E-16-1.00E-01-1.00E-01
   0.3125 -0.1875  0.3125    1  6.99243E-16 kpt; spin; max resid(k); each band:
  9.32E-17 1.58E-16 2.65E-16 6.99E-16-1.00E-01-1.00E-01
   0.4375 -0.3125  0.4375    1  3.73514E-16 kpt; spin; max resid(k); each band:
  1.02E-16 2.13E-16 7.06E-17 3.74E-16-1.00E-01-1.00E-01
  -0.4375 -0.4375 -0.4375    1  2.05281E-16 kpt; spin; max resid(k); each band:
  1.17E-16 2.05E-16 7.73E-17 1.40E-16-1.00E-01-1.00E-01
   0.1875 -0.0625  0.4375    1  3.88287E-16 kpt; spin; max resid(k); each band:
  2.37E-17 2.35E-17 2.75E-16 3.88E-16-1.00E-01-1.00E-01
   0.3125 -0.1875 -0.4375    1  5.20317E-17 kpt; spin; max resid(k); each band:
  2.31E-17 2.09E-17 4.10E-17 5.20E-17-1.00E-01-1.00E-01
   0.4375 -0.3125 -0.3125    1  3.75743E-17 kpt; spin; max resid(k); each band:
  2.53E-17 1.97E-17 3.76E-17 3.53E-17-1.00E-01-1.00E-01
   0.1875 -0.0625 -0.3125    1  3.86880E-17 kpt; spin; max resid(k); each band:
  1.17E-17 1.81E-17 1.82E-17 3.87E-17-1.00E-01-1.00E-01
   0.3125 -0.1875 -0.1875    1  1.30348E-16 kpt; spin; max resid(k); each band:
  1.59E-17 1.30E-16 1.76E-17 3.38E-17-1.00E-01-1.00E-01
   0.1875 -0.0625 -0.0625    1  2.94418E-16 kpt; spin; max resid(k); each band:
  2.07E-17 1.91E-17 1.83E-17 2.94E-16-1.00E-01-1.00E-01
 outwf : prtvol=0 or 1, do not print more k-points.


 Thirteen components of 2nd-order total energy (hartree) are
 1,2,3: 0th-order hamiltonian combined with 1st-order wavefunctions
     kin0=   3.40128890E+02 eigvalue=   3.72513914E+01  local=   2.05454028E+01
 4,5,6: 1st-order hamiltonian combined with 1st and 0th-order wfs
 loc psp =  -2.17278621E+01  Hartree=   2.39727354E+01     xc=  -3.05493040E+00
 note that "loc psp" includes a xc core correction that could be resolved
 7,8,9: eventually, occupation + non-local contributions
    edocc=   4.78608113E+00     enl0=  -8.02848911E+00   enl1=  -8.09474298E+02
 1-9 gives the relaxation energy (to be shifted if some occ is /=2.0)
   erelax=  -4.15601079E+02
 10,11,12 Non-relaxation  contributions : frozen-wavefunctions and Ewald
 fr.local=  -1.11839141E+01 fr.nonlo=   4.03904020E+02  Ewald=   2.56666066E+01
 13,14 Frozen wf xc core corrections (1) and (2)
 frxc 1  =   0.00000000E+00  frxc 2 =   0.00000000E+00
 Resulting in :
 2DEtotal=    0.2785633827E+01 Ha. Also 2DEtotal=    0.758009513659E+02 eV
    (2DErelax=   -4.1560107875E+02 Ha. 2DEnonrelax=    4.1838671258E+02 Ha)
    (  non-var. 2DEtotal :    2.7856325588E+00 Ha)

================================================================================

 ---- first-order wavefunction calculations are completed ----


 ==> Compute Derivative Database <==
  
  2nd-order matrix (non-cartesian coordinates, masses not included,
   asr not included )
     j1       j2             matrix element
  dir pert dir pert     real part     imaginary part
  
   1    1   1    1         2.7856325588        -0.0000000166
   1    1   2    1        -1.2915003033         0.0000000166
   1    1   3    1        -1.2915003033         0.0000000166
  
   2    1   1    1        -1.2915003033         0.0000000166
   2    1   2    1         2.7856325588        -0.0000000166
   2    1   3    1        -0.2026319523        -0.0000000166
  
   3    1   1    1        -1.2915003033         0.0000000166
   3    1   2    1        -0.2026319523        -0.0000000166
   3    1   3    1         2.7856325588        -0.0000000166
  
  
  Dynamical matrix, in cartesian coordinates,
   if specified in the inputs, asr has been imposed
     j1       j2             matrix element
  dir pert dir pert     real part    imaginary part
  
   1    1   1    1         0.1379277525        -0.0000000018
   1    1   2    1         0.0000000000        -0.0000000000
   1    1   3    1         0.0000000000        -0.0000000000
  
   2    1   1    1         0.0000000000        -0.0000000000
   2    1   2    1         0.0797840711        -0.0000000000
   2    1   3    1         0.0000000000        -0.0000000000
  
   3    1   1    1         0.0000000000        -0.0000000000
   3    1   2    1         0.0000000000        -0.0000000000
   3    1   3    1         0.0797840711        -0.0000000000
 
  Phonon wavevector (reduced coordinates) : -0.12500  0.12500  0.12500
 Phonon energies in Hartree :
   6.863652E-04  6.863652E-04  9.024497E-04
 Phonon energies in meV     :
-  1.867695E+01  1.867695E+01  2.455691E+01
 Phonon frequencies in cm-1    :
-  1.506398E+02  1.506398E+02  1.980648E+02
 Phonon frequencies in Thz     :
-  4.516066E+00  4.516066E+00  5.937834E+00
 Phonon energies in Kelvin  :
-  2.167367E+02  2.167367E+02  2.849707E+02

== END DATASET(S) ==============================================================
================================================================================
  
 -outvars: echo values of variables after computation  --------
            acell      6.1200000000E+00  6.1200000000E+00  6.1200000000E+00 Bohr
              amu      9.29063800E+01
             ecut      7.00000000E+00 Hartree
           enunit           2
           etotal1    -4.9720717785E+00
           etotal2     2.7856338272E+00
            fcart1    -0.0000000000E+00 -0.0000000000E+00 -0.0000000000E+00
            fcart2     0.0000000000E+00  0.0000000000E+00  0.0000000000E+00
-          fftalg         112
           getwfk1          0
           getwfk2          1
             iscf           5
           jdtset        1    2
              kpt1    -6.25000000E-02 -6.25000000E-02  1.87500000E-01
                      -6.25000000E-02 -6.25000000E-02  4.37500000E-01
                      -1.87500000E-01 -1.87500000E-01  6.25000000E-02
                      -1.87500000E-01 -1.87500000E-01 -4.37500000E-01
                      -6.25000000E-02 -3.12500000E-01 -3.12500000E-01
                      -1.87500000E-01 -4.37500000E-01  6.25000000E-02
                      -3.12500000E-01 -3.12500000E-01  1.87500000E-01
                      -4.37500000E-01 -4.37500000E-01  3.12500000E-01
              kpt2    -6.25000000E-02 -6.25000000E-02  1.87500000E-01
                      -6.25000000E-02 -6.25000000E-02  4.37500000E-01
                      -6.25000000E-02 -6.25000000E-02 -3.12500000E-01
                      -6.25000000E-02 -6.25000000E-02 -6.25000000E-02
                      -1.87500000E-01 -1.87500000E-01  6.25000000E-02
                      -6.25000000E-02 -3.12500000E-01  1.87500000E-01
                      -3.12500000E-01 -6.25000000E-02  1.87500000E-01
                      -1.87500000E-01 -1.87500000E-01  3.12500000E-01
                      -6.25000000E-02 -3.12500000E-01  4.37500000E-01
                      -3.12500000E-01 -6.25000000E-02  4.37500000E-01
                      -1.87500000E-01 -1.87500000E-01 -4.37500000E-01
                      -6.25000000E-02 -3.12500000E-01 -3.12500000E-01
                      -3.12500000E-01 -6.25000000E-02 -3.12500000E-01
                      -1.87500000E-01 -1.87500000E-01 -1.87500000E-01
                      -6.25000000E-02 -3.12500000E-01 -6.25000000E-02
                      -3.12500000E-01 -6.25000000E-02 -6.25000000E-02
                      -1.87500000E-01 -4.37500000E-01  6.25000000E-02
                      -6.25000000E-02  4.37500000E-01  1.87500000E-01
                      -4.37500000E-01 -1.87500000E-01  6.25000000E-02
                      -3.12500000E-01 -3.12500000E-01  1.87500000E-01
                      -1.87500000E-01 -4.37500000E-01  3.12500000E-01
                      -6.25000000E-02  4.37500000E-01  4.37500000E-01
                       4.37500000E-01 -6.25000000E-02  1.87500000E-01
                      -4.37500000E-01 -1.87500000E-01  3.12500000E-01
                      -3.12500000E-01 -3.12500000E-01  4.37500000E-01
                      -1.87500000E-01 -4.37500000E-01 -4.37500000E-01
                      -6.25000000E-02  4.37500000E-01 -3.12500000E-01
                       4.37500000E-01 -6.25000000E-02  4.37500000E-01
                      -4.37500000E-01 -1.87500000E-01 -4.37500000E-01
                      -3.12500000E-01 -3.12500000E-01 -3.12500000E-01
                      -1.87500000E-01 -4.37500000E-01 -1.87500000E-01
                      -6.25000000E-02  4.37500000E-01 -6.25000000E-02
                       4.37500000E-01 -6.25000000E-02 -3.12500000E-01
                      -4.37500000E-01 -1.87500000E-01 -1.87500000E-01
                      -3.12500000E-01 -3.12500000E-01 -6.25000000E-02
                       4.37500000E-01 -6.25000000E-02 -6.25000000E-02
                      -1.87500000E-01  3.12500000E-01  6.25000000E-02
                      -6.25000000E-02  1.87500000E-01  1.87500000E-01
                      -4.37500000E-01 -4.37500000E-01  6.25000000E-02
                      -3.12500000E-01  4.37500000E-01  1.87500000E-01
                      -1.87500000E-01  3.12500000E-01  3.12500000E-01
                      -6.25000000E-02  1.87500000E-01  4.37500000E-01
                       3.12500000E-01 -1.87500000E-01  6.25000000E-02
                       4.37500000E-01 -3.12500000E-01  1.87500000E-01
                      -4.37500000E-01 -4.37500000E-01  3.12500000E-01
                      -3.12500000E-01  4.37500000E-01  4.37500000E-01
                      -1.87500000E-01  3.12500000E-01 -4.37500000E-01
                      -6.25000000E-02  1.87500000E-01 -3.12500000E-01
                       1.87500000E-01 -6.25000000E-02  1.87500000E-01
                       3.12500000E-01 -1.87500000E-01  3.12500000E-01
                       outvar_i_n : Printing only first  50 k-points.
           kptopt1          1
           kptopt2          3
         kptrlatt        4    0    4      0    4    4     -4   -4    0
          kptrlen      2.44800000E+01
P           mkmem1          8
P           mkmem2        128
P          mkqmem1          8
P          mkqmem2        128
P          mk1mem1          8
P          mk1mem2        128
            natom           1
            nband1          6
            nband2          6
           nbdbuf1          0
           nbdbuf2          2
           ndtset           2
            ngfft          15      15      15
             nkpt1          8
             nkpt2        128
             nqpt1          0
             nqpt2          1
             nsym          48
           ntypat           1
              occ1     2.000000  0.000010  0.000010  0.000000  0.000000  0.000000
                       2.000000  2.000862  2.086629  0.000000  0.000000  0.000000
                       2.000000  2.077296  0.354112  0.000000  0.000000  0.000000
                       2.000000  2.000011  2.000011  0.000000  0.000000  0.000000
                       2.000000  2.000131  2.000131  0.000000  0.000000  0.000000
                       2.000000  2.007623  2.135979  0.000000  0.000000  0.000000
                       2.000000  2.000000  0.004065  0.000000  0.000000  0.000000
                       2.000000  2.000000  0.000000  0.000000  0.000000  0.000000
              occ2     2.000000  0.000010  0.000010  0.000000  0.000000  0.000000
                       2.000000  2.000862  2.086629  0.000000  0.000000  0.000000
                       2.000000  2.000862  2.086629  0.000000  0.000000  0.000000
                       2.000000  0.000010  0.000010  0.000000  0.000000  0.000000
                       2.000000  2.077296  0.354112  0.000000  0.000000  0.000000
                       2.000000  2.077296  0.354112  0.000000  0.000000  0.000000
                       2.000000  2.077296  0.354112  0.000000  0.000000  0.000000
                       2.000000  2.077296  0.354112  0.000000  0.000000  0.000000
                       2.000000  2.000862  2.086629  0.000000  0.000000  0.000000
                       2.000000  2.000862  2.086629  0.000000  0.000000  0.000000
                       2.000000  2.000011  2.000011  0.000000  0.000000  0.000000
                       2.000000  2.000131  2.000131  0.000000  0.000000  0.000000
                       2.000000  2.000131  2.000131  0.000000  0.000000  0.000000
                       2.000000  2.000011  2.000011  0.000000  0.000000  0.000000
                       2.000000  2.000862  2.086629  0.000000  0.000000  0.000000
                       2.000000  2.000862  2.086629  0.000000  0.000000  0.000000
                       2.000000  2.007623  2.135979  0.000000  0.000000  0.000000
                       2.000000  2.007623  2.135979  0.000000  0.000000  0.000000
                       2.000000  2.007623  2.135979  0.000000  0.000000  0.000000
                       2.000000  2.000000  0.004065  0.000000  0.000000  0.000000
                       2.000000  2.000000  0.004065  0.000000  0.000000  0.000000
                       2.000000  2.007623  2.135979  0.000000  0.000000  0.000000
                       2.000000  2.007623  2.135979  0.000000  0.000000  0.000000
                       2.000000  2.000000  0.004065  0.000000  0.000000  0.000000
                       2.000000  2.000000  0.004065  0.000000  0.000000  0.000000
                       2.000000  2.007623  2.135979  0.000000  0.000000  0.000000
                       2.000000  2.000862  2.086629  0.000000  0.000000  0.000000
                       2.000000  2.007623  2.135979  0.000000  0.000000  0.000000
                       2.000000  2.007623  2.135979  0.000000  0.000000  0.000000
                       2.000000  2.000131  2.000131  0.000000  0.000000  0.000000
                       2.000000  2.000011  2.000011  0.000000  0.000000  0.000000
                       2.000000  2.000862  2.086629  0.000000  0.000000  0.000000
                       2.000000  2.000862  2.086629  0.000000  0.000000  0.000000
                       2.000000  2.000011  2.000011  0.000000  0.000000  0.000000
                       2.000000  2.000131  2.000131  0.000000  0.000000  0.000000
                       2.000000  2.000862  2.086629  0.000000  0.000000  0.000000
                       2.000000  2.077296  0.354112  0.000000  0.000000  0.000000
                       2.000000  2.077296  0.354112  0.000000  0.000000  0.000000
                       2.000000  2.007623  2.135979  0.000000  0.000000  0.000000
                       2.000000  2.000000  0.004065  0.000000  0.000000  0.000000
                       2.000000  2.000000  0.004065  0.000000  0.000000  0.000000
                       2.000000  2.007623  2.135979  0.000000  0.000000  0.000000
                       2.000000  2.077296  0.354112  0.000000  0.000000  0.000000
                       2.000000  2.000000  0.004065  0.000000  0.000000  0.000000
                       2.000000  2.000000  0.000000  0.000000  0.000000  0.000000
                       2.000000  2.000000  0.000000  0.000000  0.000000  0.000000
                       2.000000  2.000000  0.004065  0.000000  0.000000  0.000000
                       2.000000  2.077296  0.354112  0.000000  0.000000  0.000000
                       2.000000  2.077296  0.354112  0.000000  0.000000  0.000000
                       2.000000  2.000000  0.004065  0.000000  0.000000  0.000000
                       prtocc : prtvol=0, do not print more k-points.
           occopt           4
        optdriver1          0
        optdriver2          1
              qpt1     0.00000000E+00  0.00000000E+00  0.00000000E+00
              qpt2    -1.25000000E-01  1.25000000E-01  1.25000000E-01
            rfdir1          0       0       0
            rfdir2          1       1       1
           rfphon1          0
           rfphon2          1
            rprim     -5.0000000000E-01  5.0000000000E-01  5.0000000000E-01
                       5.0000000000E-01 -5.0000000000E-01  5.0000000000E-01
                       5.0000000000E-01  5.0000000000E-01 -5.0000000000E-01
           shiftk      5.00000000E-01  5.00000000E-01  5.00000000E-01
          spgroup         229
           strten1     3.4811460568E-03  3.4811460568E-03  3.4811460568E-03
                       0.0000000000E+00  0.0000000000E+00  0.0000000000E+00
           strten2     0.0000000000E+00  0.0000000000E+00  0.0000000000E+00
                       0.0000000000E+00  0.0000000000E+00  0.0000000000E+00
           symrel      1  0  0   0  1  0   0  0  1      -1  0  0   0 -1  0   0  0 -1
                      -1 -1 -1   0  0  1   0  1  0       1  1  1   0  0 -1   0 -1  0
                       0  1  0   1  0  0  -1 -1 -1       0 -1  0  -1  0  0   1  1  1
                       0  0  1  -1 -1 -1   1  0  0       0  0 -1   1  1  1  -1  0  0
                       0  1  0   1  0  0   0  0  1       0 -1  0  -1  0  0   0  0 -1
                      -1 -1 -1   0  0  1   1  0  0       1  1  1   0  0 -1  -1  0  0
                       1  0  0   0  1  0  -1 -1 -1      -1  0  0   0 -1  0   1  1  1
                       0  0  1  -1 -1 -1   0  1  0       0  0 -1   1  1  1   0 -1  0
                      -1 -1 -1   1  0  0   0  0  1       1  1  1  -1  0  0   0  0 -1
                       0  1  0   0  0  1   1  0  0       0 -1  0   0  0 -1  -1  0  0
                       1  0  0  -1 -1 -1   0  1  0      -1  0  0   1  1  1   0 -1  0
                       0  0  1   0  1  0  -1 -1 -1       0  0 -1   0 -1  0   1  1  1
                       1  0  0  -1 -1 -1   0  0  1      -1  0  0   1  1  1   0  0 -1
                       0  1  0   0  0  1  -1 -1 -1       0 -1  0   0  0 -1   1  1  1
                      -1 -1 -1   1  0  0   0  1  0       1  1  1  -1  0  0   0 -1  0
                       0  0  1   0  1  0   1  0  0       0  0 -1   0 -1  0  -1  0  0
                       0  1  0  -1 -1 -1   0  0  1       0 -1  0   1  1  1   0  0 -1
                       1  0  0   0  0  1  -1 -1 -1      -1  0  0   0  0 -1   1  1  1
                      -1 -1 -1   0  1  0   1  0  0       1  1  1   0 -1  0  -1  0  0
                       0  0  1   1  0  0   0  1  0       0  0 -1  -1  0  0   0 -1  0
                      -1 -1 -1   0  1  0   0  0  1       1  1  1   0 -1  0   0  0 -1
                       1  0  0   0  0  1   0  1  0      -1  0  0   0  0 -1   0 -1  0
                       0  1  0  -1 -1 -1   1  0  0       0 -1  0   1  1  1  -1  0  0
                       0  0  1   1  0  0  -1 -1 -1       0  0 -1  -1  0  0   1  1  1
           tolvrs1     1.00000000E-16
           tolvrs2     1.00000000E-09
           tsmear      1.50000000E-02 Hartree
            typat      1
              wtk1       0.06250    0.18750    0.18750    0.06250    0.06250    0.18750
                         0.18750    0.06250
              wtk2       0.00781    0.00781    0.00781    0.00781    0.00781    0.00781
                         0.00781    0.00781    0.00781    0.00781    0.00781    0.00781
                         0.00781    0.00781    0.00781    0.00781    0.00781    0.00781
                         0.00781    0.00781    0.00781    0.00781    0.00781    0.00781
                         0.00781    0.00781    0.00781    0.00781    0.00781    0.00781
                         0.00781    0.00781    0.00781    0.00781    0.00781    0.00781
                         0.00781    0.00781    0.00781    0.00781    0.00781    0.00781
                         0.00781    0.00781    0.00781    0.00781    0.00781    0.00781
                         0.00781    0.00781
                       outvars : Printing only first  50 k-points.
            znucl       41.00000

================================================================================


- Timing analysis has been suppressed with timopt=0



================================================================================

 Suggested references for the acknowledgment of ABINIT usage.

 The users of ABINIT have little formal obligations with respect to the ABINIT group
 (those specified in the GNU General Public License, http://www.gnu.org/copyleft/gpl.txt).
 However, it is common practice in the scientific literature,
 to acknowledge the efforts of people that have made the research possible.
 In this spirit, please find below suggested citations of work written by ABINIT developers,
 corresponding to implementations inside of ABINIT that you have used in the present run.
 Note also that it will be of great value to readers of publications presenting these results,
 to read papers enabling them to understand the theoretical formalism and details
 of the ABINIT implementation.
 For information on why they are suggested, see also http://www.abinit.org/about/?text=acknowledgments.

 [1] First-principles responses of solids to atomic displacements and homogeneous electric fields:,
 implementation of a conjugate-gradient algorithm. X. Gonze, Phys. Rev. B55, 10337 (1997).
 Comment : Non-vanishing rfphon and/or rfelfd, in the norm-conserving case.

 [2] Dynamical matrices, Born effective charges, dielectric permittivity tensors, and ,
 interatomic force constants from density-functional perturbation theory,
 X. Gonze and C. Lee, Phys. Rev. B55, 10355 (1997).
 Comment : Non-vanishing rfphon and/or rfelfd, in the norm-conserving case.

 [3] Ab initio pseudopotentials for electronic structure calculations of poly-atomic systems, 
 using density-functional theory.
 M. Fuchs, M. Scheffler, Comput. Phys. Commun. 119, 67 (1999).
 Comment : Some pseudopotential generated using the FHI code were used.

 [4] ABINIT : First-principles approach of materials and nanosystem properties.
 X. Gonze, B. Amadon, P.-M. Anglade, J.-M. Beuken, F. Bottin, P. Boulanger, F. Bruneval,
 D. Caliste, R. Caracas, M. Cote, T. Deutsch, L. Genovese, Ph. Ghosez, M. Giantomassi
 S. Goedecker, D.R. Hamann, P. Hermet, F. Jollet, G. Jomard, S. Leroux, M. Mancini, S. Mazevet,
 M.J.T. Oliveira, G. Onida, Y. Pouillon, T. Rangel, G.-M. Rignanese, D. Sangalli, R. Shaltaf,
 M. Torrent, M.J. Verstraete, G. Zerah, J.W. Zwanziger
 Computer Phys. Comm. 180, 2582-2615 (2009).
 Comment : the third generic paper describing the ABINIT project.
 Note that a version of this paper, that is not formatted for Computer Phys. Comm. 
 is available at http://www.abinit.org/about/ABINIT_CPC_v10.pdf .
 The licence allows the authors to put it on the Web.

 [5] A brief introduction to the ABINIT software package.
 X. Gonze, G.-M. Rignanese, M. Verstraete, J.-M. Beuken, Y. Pouillon, R. Caracas, F. Jollet,
 M. Torrent, G. Zerah, M. Mikami, Ph. Ghosez, M. Veithen, J.-Y. Raty, V. Olevano, F. Bruneval,
 L. Reining, R. Godby, G. Onida, D.R. Hamann, and D.C. Allan.
 Z. Kristallogr. 220, 558-562 (2005).
 Comment : the second generic paper describing the ABINIT project. Note that this paper
 should be cited especially if you are using the GW part of ABINIT, as several authors
 of this part are not in the list of authors of the first or third paper.
 The .pdf of the latter paper is available at http://www.abinit.org/about/zfk_0505-06_558-562.pdf.
 Note that it should not redistributed (Copyright by Oldenburg Wissenshaftverlag,
 the licence allows the authors to put it on the Web).
-
- Proc.   0 individual time (sec): cpu=          5.8  wall=          5.8

================================================================================

 Calculation completed.
.Delivered    7 WARNINGs and   4 COMMENTs to log file.
+Overall time at end (sec) : cpu=          5.8  wall=          5.8
