
.Version 7.9.3 of ABINIT 
.(MPI version, prepared for a x86_64_linux_gnu4.7 computer) 

.Copyright (C) 1998-2014 ABINIT group . 
 ABINIT comes with ABSOLUTELY NO WARRANTY.
 It is free software, and you are welcome to redistribute it
 under certain conditions (GNU General Public License,
 see ~abinit/COPYING or http://www.gnu.org/copyleft/gpl.txt).

 ABINIT is a project of the Universite Catholique de Louvain,
 Corning Inc. and other collaborators, see ~abinit/doc/developers/contributors.txt .
 Please read ~abinit/doc/users/acknowledgments.html for suggested
 acknowledgments of the ABINIT effort.
 For more information, see http://www.abinit.org .

.Starting date : Sat 30 Aug 2014.
- ( at 22h18 )
  
- input  file    -> t04.in
- output file    -> t04.out
- root for input  files -> t04i
- root for output files -> t04o


 DATASET    1 : space group Fm -3 m (#225); Bravais cF (face-center cubic)
================================================================================
 Values of the parameters that define the memory need for DATASET  1.
   intxc =         0  ionmov =         0    iscf =        17 xclevel =         2
  lmnmax =        18   lnmax =         6   mband =        14  mffmem =         1
P  mgfft =        12   mkmem =        28 mpssoang=         3     mpw =        84
  mqgrid =      3001   natom =         1    nfft =      1728    nkpt =        28
  nloalg =         4  nspden =         2 nspinor =         1  nsppol =         2
    nsym =        48  n1xccc =         1  ntypat =         1  occopt =         7
 PAW method is used; the additional fine FFT grid is defined by:
   mgfftf=        30    nfftf =     27000
================================================================================
P This job should need less than                      18.051 Mbytes of memory.
  Rough estimation (10% accuracy) of disk space for files :
_ WF disk file :      1.007 Mbytes ; DEN or POT disk file :      0.414 Mbytes.
================================================================================

--------------------------------------------------------------------------------
------------- Echo of variables that govern the present computation ------------
--------------------------------------------------------------------------------
-
- outvars: echo of selected default values                                      
-   accesswff0 =  0 , fftalg0 =112 , wfoptalg0 = 10
-
- outvars: echo of global parameters not present in the input file              
-  max_nthreads =    0
-
 -outvars: echo values of preprocessed input variables --------
            acell      6.6518359878E+00  6.6518359878E+00  6.6518359878E+00 Bohr
              amu      5.86900000E+01
             ecut      8.00000000E+00 Hartree
-          fftalg         112
           getwfk          -1
              ixc          11
           jdtset        1
              kpt     -8.33333333E-02 -1.66666667E-01  0.00000000E+00
                      -8.33333333E-02 -3.33333333E-01  0.00000000E+00
                      -1.66666667E-01 -2.50000000E-01  0.00000000E+00
                      -8.33333333E-02 -2.50000000E-01  8.33333333E-02
                      -8.33333333E-02  5.00000000E-01  0.00000000E+00
                      -1.66666667E-01 -4.16666667E-01  0.00000000E+00
                      -8.33333333E-02 -4.16666667E-01  8.33333333E-02
                      -2.50000000E-01 -3.33333333E-01  0.00000000E+00
                      -1.66666667E-01 -3.33333333E-01  8.33333333E-02
                      -8.33333333E-02 -3.33333333E-01  1.66666667E-01
                      -8.33333333E-02  3.33333333E-01  0.00000000E+00
                      -1.66666667E-01  4.16666667E-01  0.00000000E+00
                      -2.50000000E-01  5.00000000E-01  0.00000000E+00
                      -1.66666667E-01  5.00000000E-01  8.33333333E-02
                      -3.33333333E-01 -4.16666667E-01  0.00000000E+00
                      -2.50000000E-01 -4.16666667E-01  8.33333333E-02
                      -1.66666667E-01 -4.16666667E-01  1.66666667E-01
                      -8.33333333E-02 -4.16666667E-01  2.50000000E-01
                      -8.33333333E-02  1.66666667E-01  0.00000000E+00
                      -1.66666667E-01  2.50000000E-01  0.00000000E+00
                      -2.50000000E-01  3.33333333E-01  0.00000000E+00
                      -3.33333333E-01  4.16666667E-01  0.00000000E+00
                      -4.16666667E-01  5.00000000E-01  0.00000000E+00
                      -3.33333333E-01  5.00000000E-01  8.33333333E-02
                      -2.50000000E-01  5.00000000E-01  1.66666667E-01
                      -8.33333333E-02  0.00000000E+00  0.00000000E+00
                      -2.50000000E-01  0.00000000E+00  0.00000000E+00
                      -4.16666667E-01  0.00000000E+00  0.00000000E+00
         kptrlatt        6   -6    6     -6    6    6     -6   -6    6
          kptrlen      3.99110159E+01
P           mkmem          28
            natom           1
            nband          14
           ndtset           1
            ngfft          12      12      12
          ngfftdg          30      30      30
             nkpt          28
            nline           6
           nspden           2
           nsppol           2
            nstep           6
             nsym          48
           ntypat           1
              occ      1.000000  1.000000  1.000000  1.000000  1.000000  0.000000
                       0.000000  0.000000  0.000000  0.000000  0.000000  0.000000
                       0.000000  0.000000
                       1.000000  1.000000  1.000000  1.000000  1.000000  0.000000
                       0.000000  0.000000  0.000000  0.000000  0.000000  0.000000
                       0.000000  0.000000
                       1.000000  1.000000  1.000000  1.000000  1.000000  0.000000
                       0.000000  0.000000  0.000000  0.000000  0.000000  0.000000
                       0.000000  0.000000
                       1.000000  1.000000  1.000000  1.000000  1.000000  0.000000
                       0.000000  0.000000  0.000000  0.000000  0.000000  0.000000
                       0.000000  0.000000
                       1.000000  1.000000  1.000000  1.000000  1.000000  0.000000
                       0.000000  0.000000  0.000000  0.000000  0.000000  0.000000
                       0.000000  0.000000
                       1.000000  1.000000  1.000000  1.000000  1.000000  0.000000
                       0.000000  0.000000  0.000000  0.000000  0.000000  0.000000
                       0.000000  0.000000
                       1.000000  1.000000  1.000000  1.000000  1.000000  0.000000
                       0.000000  0.000000  0.000000  0.000000  0.000000  0.000000
                       0.000000  0.000000
                       1.000000  1.000000  1.000000  1.000000  1.000000  0.000000
                       0.000000  0.000000  0.000000  0.000000  0.000000  0.000000
                       0.000000  0.000000
                       1.000000  1.000000  1.000000  1.000000  1.000000  0.000000
                       0.000000  0.000000  0.000000  0.000000  0.000000  0.000000
                       0.000000  0.000000
                       1.000000  1.000000  1.000000  1.000000  1.000000  0.000000
                       0.000000  0.000000  0.000000  0.000000  0.000000  0.000000
                       0.000000  0.000000
                       1.000000  1.000000  1.000000  1.000000  1.000000  0.000000
                       0.000000  0.000000  0.000000  0.000000  0.000000  0.000000
                       0.000000  0.000000
                       1.000000  1.000000  1.000000  1.000000  1.000000  0.000000
                       0.000000  0.000000  0.000000  0.000000  0.000000  0.000000
                       0.000000  0.000000
                       1.000000  1.000000  1.000000  1.000000  1.000000  0.000000
                       0.000000  0.000000  0.000000  0.000000  0.000000  0.000000
                       0.000000  0.000000
                       1.000000  1.000000  1.000000  1.000000  1.000000  0.000000
                       0.000000  0.000000  0.000000  0.000000  0.000000  0.000000
                       0.000000  0.000000
                       1.000000  1.000000  1.000000  1.000000  1.000000  0.000000
                       0.000000  0.000000  0.000000  0.000000  0.000000  0.000000
                       0.000000  0.000000
                       1.000000  1.000000  1.000000  1.000000  1.000000  0.000000
                       0.000000  0.000000  0.000000  0.000000  0.000000  0.000000
                       0.000000  0.000000
                       1.000000  1.000000  1.000000  1.000000  1.000000  0.000000
                       0.000000  0.000000  0.000000  0.000000  0.000000  0.000000
                       0.000000  0.000000
                       1.000000  1.000000  1.000000  1.000000  1.000000  0.000000
                       0.000000  0.000000  0.000000  0.000000  0.000000  0.000000
                       0.000000  0.000000
                       1.000000  1.000000  1.000000  1.000000  1.000000  0.000000
                       0.000000  0.000000  0.000000  0.000000  0.000000  0.000000
                       0.000000  0.000000
                       1.000000  1.000000  1.000000  1.000000  1.000000  0.000000
                       0.000000  0.000000  0.000000  0.000000  0.000000  0.000000
                       0.000000  0.000000
                       1.000000  1.000000  1.000000  1.000000  1.000000  0.000000
                       0.000000  0.000000  0.000000  0.000000  0.000000  0.000000
                       0.000000  0.000000
                       1.000000  1.000000  1.000000  1.000000  1.000000  0.000000
                       0.000000  0.000000  0.000000  0.000000  0.000000  0.000000
                       0.000000  0.000000
                       1.000000  1.000000  1.000000  1.000000  1.000000  0.000000
                       0.000000  0.000000  0.000000  0.000000  0.000000  0.000000
                       0.000000  0.000000
                       1.000000  1.000000  1.000000  1.000000  1.000000  0.000000
                       0.000000  0.000000  0.000000  0.000000  0.000000  0.000000
                       0.000000  0.000000
                       1.000000  1.000000  1.000000  1.000000  1.000000  0.000000
                       0.000000  0.000000  0.000000  0.000000  0.000000  0.000000
                       0.000000  0.000000
                       1.000000  1.000000  1.000000  1.000000  1.000000  0.000000
                       0.000000  0.000000  0.000000  0.000000  0.000000  0.000000
                       0.000000  0.000000
                       1.000000  1.000000  1.000000  1.000000  1.000000  0.000000
                       0.000000  0.000000  0.000000  0.000000  0.000000  0.000000
                       0.000000  0.000000
                       1.000000  1.000000  1.000000  1.000000  1.000000  0.000000
                       0.000000  0.000000  0.000000  0.000000  0.000000  0.000000
                       0.000000  0.000000
                       1.000000  1.000000  1.000000  1.000000  1.000000  0.000000
                       0.000000  0.000000  0.000000  0.000000  0.000000  0.000000
                       0.000000  0.000000
                       1.000000  1.000000  1.000000  1.000000  1.000000  0.000000
                       0.000000  0.000000  0.000000  0.000000  0.000000  0.000000
                       0.000000  0.000000
                       1.000000  1.000000  1.000000  1.000000  1.000000  0.000000
                       0.000000  0.000000  0.000000  0.000000  0.000000  0.000000
                       0.000000  0.000000
                       1.000000  1.000000  1.000000  1.000000  1.000000  0.000000
                       0.000000  0.000000  0.000000  0.000000  0.000000  0.000000
                       0.000000  0.000000
                       1.000000  1.000000  1.000000  1.000000  1.000000  0.000000
                       0.000000  0.000000  0.000000  0.000000  0.000000  0.000000
                       0.000000  0.000000
                       1.000000  1.000000  1.000000  1.000000  1.000000  0.000000
                       0.000000  0.000000  0.000000  0.000000  0.000000  0.000000
                       0.000000  0.000000
                       1.000000  1.000000  1.000000  1.000000  1.000000  0.000000
                       0.000000  0.000000  0.000000  0.000000  0.000000  0.000000
                       0.000000  0.000000
                       1.000000  1.000000  1.000000  1.000000  1.000000  0.000000
                       0.000000  0.000000  0.000000  0.000000  0.000000  0.000000
                       0.000000  0.000000
                       1.000000  1.000000  1.000000  1.000000  1.000000  0.000000
                       0.000000  0.000000  0.000000  0.000000  0.000000  0.000000
                       0.000000  0.000000
                       1.000000  1.000000  1.000000  1.000000  1.000000  0.000000
                       0.000000  0.000000  0.000000  0.000000  0.000000  0.000000
                       0.000000  0.000000
                       1.000000  1.000000  1.000000  1.000000  1.000000  0.000000
                       0.000000  0.000000  0.000000  0.000000  0.000000  0.000000
                       0.000000  0.000000
                       1.000000  1.000000  1.000000  1.000000  1.000000  0.000000
                       0.000000  0.000000  0.000000  0.000000  0.000000  0.000000
                       0.000000  0.000000
                       1.000000  1.000000  1.000000  1.000000  1.000000  0.000000
                       0.000000  0.000000  0.000000  0.000000  0.000000  0.000000
                       0.000000  0.000000
                       1.000000  1.000000  1.000000  1.000000  1.000000  0.000000
                       0.000000  0.000000  0.000000  0.000000  0.000000  0.000000
                       0.000000  0.000000
                       1.000000  1.000000  1.000000  1.000000  1.000000  0.000000
                       0.000000  0.000000  0.000000  0.000000  0.000000  0.000000
                       0.000000  0.000000
                       1.000000  1.000000  1.000000  1.000000  1.000000  0.000000
                       0.000000  0.000000  0.000000  0.000000  0.000000  0.000000
                       0.000000  0.000000
                       1.000000  1.000000  1.000000  1.000000  1.000000  0.000000
                       0.000000  0.000000  0.000000  0.000000  0.000000  0.000000
                       0.000000  0.000000
                       1.000000  1.000000  1.000000  1.000000  1.000000  0.000000
                       0.000000  0.000000  0.000000  0.000000  0.000000  0.000000
                       0.000000  0.000000
                       1.000000  1.000000  1.000000  1.000000  1.000000  0.000000
                       0.000000  0.000000  0.000000  0.000000  0.000000  0.000000
                       0.000000  0.000000
                       1.000000  1.000000  1.000000  1.000000  1.000000  0.000000
                       0.000000  0.000000  0.000000  0.000000  0.000000  0.000000
                       0.000000  0.000000
                       1.000000  1.000000  1.000000  1.000000  1.000000  0.000000
                       0.000000  0.000000  0.000000  0.000000  0.000000  0.000000
                       0.000000  0.000000
                       1.000000  1.000000  1.000000  1.000000  1.000000  0.000000
                       0.000000  0.000000  0.000000  0.000000  0.000000  0.000000
                       0.000000  0.000000
                       1.000000  1.000000  1.000000  1.000000  1.000000  0.000000
                       0.000000  0.000000  0.000000  0.000000  0.000000  0.000000
                       0.000000  0.000000
                       1.000000  1.000000  1.000000  1.000000  1.000000  0.000000
                       0.000000  0.000000  0.000000  0.000000  0.000000  0.000000
                       0.000000  0.000000
                       1.000000  1.000000  1.000000  1.000000  1.000000  0.000000
                       0.000000  0.000000  0.000000  0.000000  0.000000  0.000000
                       0.000000  0.000000
                       1.000000  1.000000  1.000000  1.000000  1.000000  0.000000
                       0.000000  0.000000  0.000000  0.000000  0.000000  0.000000
                       0.000000  0.000000
                       1.000000  1.000000  1.000000  1.000000  1.000000  0.000000
                       0.000000  0.000000  0.000000  0.000000  0.000000  0.000000
                       0.000000  0.000000
                       1.000000  1.000000  1.000000  1.000000  1.000000  0.000000
                       0.000000  0.000000  0.000000  0.000000  0.000000  0.000000
                       0.000000  0.000000
           occopt           7
        pawecutdg      4.00000000E+01 Hartree
           prtden           0
           prteig           0
            rprim      0.0000000000E+00  5.0000000000E-01  5.0000000000E-01
                       5.0000000000E-01  0.0000000000E+00  5.0000000000E-01
                       5.0000000000E-01  5.0000000000E-01  0.0000000000E+00
           shiftk      5.00000000E-01  5.00000000E-01  5.00000000E-01
          spgroup         225
           spinat      0.0000000000E+00  0.0000000000E+00  4.0000000000E+00
           symrel      1  0  0   0  1  0   0  0  1      -1  0  0   0 -1  0   0  0 -1
                       0 -1  1   0 -1  0   1 -1  0       0  1 -1   0  1  0  -1  1  0
                      -1  0  0  -1  0  1  -1  1  0       1  0  0   1  0 -1   1 -1  0
                       0  1 -1   1  0 -1   0  0 -1       0 -1  1  -1  0  1   0  0  1
                      -1  0  0  -1  1  0  -1  0  1       1  0  0   1 -1  0   1  0 -1
                       0 -1  1   1 -1  0   0 -1  0       0  1 -1  -1  1  0   0  1  0
                       1  0  0   0  0  1   0  1  0      -1  0  0   0  0 -1   0 -1  0
                       0  1 -1   0  0 -1   1  0 -1       0 -1  1   0  0  1  -1  0  1
                      -1  0  1  -1  1  0  -1  0  0       1  0 -1   1 -1  0   1  0  0
                       0 -1  0   1 -1  0   0 -1  1       0  1  0  -1  1  0   0  1 -1
                       1  0 -1   0  0 -1   0  1 -1      -1  0  1   0  0  1   0 -1  1
                       0  1  0   0  0  1   1  0  0       0 -1  0   0  0 -1  -1  0  0
                       1  0 -1   0  1 -1   0  0 -1      -1  0  1   0 -1  1   0  0  1
                       0 -1  0   0 -1  1   1 -1  0       0  1  0   0  1 -1  -1  1  0
                      -1  0  1  -1  0  0  -1  1  0       1  0 -1   1  0  0   1 -1  0
                       0  1  0   1  0  0   0  0  1       0 -1  0  -1  0  0   0  0 -1
                       0  0 -1   0  1 -1   1  0 -1       0  0  1   0 -1  1  -1  0  1
                       1 -1  0   0 -1  1   0 -1  0      -1  1  0   0  1 -1   0  1  0
                       0  0  1   1  0  0   0  1  0       0  0 -1  -1  0  0   0 -1  0
                      -1  1  0  -1  0  0  -1  0  1       1 -1  0   1  0  0   1  0 -1
                       0  0  1   0  1  0   1  0  0       0  0 -1   0 -1  0  -1  0  0
                       1 -1  0   0 -1  0   0 -1  1      -1  1  0   0  1  0   0  1 -1
                       0  0 -1   1  0 -1   0  1 -1       0  0  1  -1  0  1   0 -1  1
                      -1  1  0  -1  0  1  -1  0  0       1 -1  0   1  0 -1   1  0  0
           tolrde      1.00000000E-04
           tolvrs      1.00000000E-09
           tsmear      7.50000000E-03 Hartree
            typat      1
           useylm           1
              wtk        0.02778    0.02778    0.02778    0.05556    0.02778    0.02778
                         0.05556    0.02778    0.05556    0.05556    0.02778    0.02778
                         0.02778    0.05556    0.02778    0.05556    0.05556    0.05556
                         0.02778    0.02778    0.02778    0.02778    0.02778    0.05556
                         0.05556    0.00926    0.00926    0.00926
            znucl       28.00000

================================================================================

 chkinp: Checking input parameters for consistency, jdtset=   1.

================================================================================
== DATASET  1 ==================================================================
-   nproc =    1

 Exchange-correlation functional for the present dataset will be:
  GGA: Perdew-Burke-Ernzerhof functional - ixc=11
 Citation for XC functional:
  J.P.Perdew, K.Burke, M.Ernzerhof, PRL 77, 3865 (1996)

 Real(R)+Recip(G) space primitive vectors, cartesian coordinates (Bohr,Bohr^-1):
 R(1)=  0.0000000  3.3259180  3.3259180  G(1)= -0.1503344  0.1503344  0.1503344
 R(2)=  3.3259180  0.0000000  3.3259180  G(2)=  0.1503344 -0.1503344  0.1503344
 R(3)=  3.3259180  3.3259180  0.0000000  G(3)=  0.1503344  0.1503344 -0.1503344
 Unit cell volume ucvol=  7.3580817E+01 bohr^3
 Angles (23,13,12)=  6.00000000E+01  6.00000000E+01  6.00000000E+01 degrees

 Coarse grid specifications (used for wave-functions):

 getcut: wavevector=  0.0000  0.0000  0.0000  ngfft=  12  12  12
         ecut(hartree)=      8.000   => boxcut(ratio)=   2.00375

 Fine grid specifications (used for densities):

 getcut: wavevector=  0.0000  0.0000  0.0000  ngfft=  30  30  30
         ecut(hartree)=     40.000   => boxcut(ratio)=   2.24275

 getcut : COMMENT -
  Note that boxcut > 2.2 ; recall that boxcut=Gcut(box)/Gcut(sphere) = 2
  is sufficient for exact treatment of convolution.
  Such a large boxcut is a waste : you could raise ecut
  e.g. ecut=   50.299449 Hartrees makes boxcut=2


--- Pseudopotential description ------------------------------------------------
- pspini: atom type   1  psp file is /home/gonze/ABINIT/ABINITv7.9.3/trunk/7.9.3-private/tests/Test_suite/atompaw_t03-t04/Ni.GGA-PBE-paw.abinit
- pspatm: opening atomic psp file    /home/gonze/ABINIT/ABINITv7.9.3/trunk/7.9.3-private/tests/Test_suite/atompaw_t03-t04/Ni.GGA-PBE-paw.abinit
- Paw atomic data for element Ni - Generated with atompaw v4.0.0.10
- 28.00000  10.00000  20140830                znucl, zion, pspdat
    7   11    2    0      1450   0.00000      pspcod,pspxc,lmax,lloc,mmax,r2well
 Pseudopotential format is: paw5
 basis_size (lnmax)=  6 (lmn_size= 18), orbitals=   0   0   1   1   2   2
 Spheres core radius: rc_sph= 2.30969850
 5 radial meshes are used:
  - mesh 1: r(i)=AA*[exp(BB*(i-1))-1], size=1450 , AA= 0.22811E-03 BB= 0.63871E-02
  - mesh 2: r(i)=AA*[exp(BB*(i-1))-1], size=1445 , AA= 0.22811E-03 BB= 0.63871E-02
  - mesh 3: r(i)=AA*[exp(BB*(i-1))-1], size=1558 , AA= 0.22811E-03 BB= 0.63871E-02
  - mesh 4: r(i)=AA*[exp(BB*(i-1))-1], size=1674 , AA= 0.22811E-03 BB= 0.63871E-02
  - mesh 5: r(i)=AA*[exp(BB*(i-1))-1], size=1751 , AA= 0.22811E-03 BB= 0.63871E-02
 Shapefunction is SIN type: shapef(r)=[sin(pi*r/rshp)/(pi*r/rshp)]**2
 Radius for shape functions = sphere core radius
 Radial grid used for partial waves is grid 1
 Radial grid used for projectors is grid  2
 Radial grid used for (t)core density is grid 3
 Radial grid used for Vloc is grid 4
 Radial grid used for pseudo valence density is grid 5
 Compensation charge density is not taken into account in XC energy/potential
 pspatm: atomic psp has been read  and splines computed

   2.05631030E+02                                ecore*ucvol(ha*bohr**3)
--------------------------------------------------------------------------------

P newkpt: treating     14 bands with npw=      73 for ikpt=   1 by node    0
P newkpt: treating     14 bands with npw=      76 for ikpt=   2 by node    0
P newkpt: treating     14 bands with npw=      79 for ikpt=   3 by node    0
P newkpt: treating     14 bands with npw=      78 for ikpt=   4 by node    0
P newkpt: treating     14 bands with npw=      80 for ikpt=   5 by node    0
P newkpt: treating     14 bands with npw=      79 for ikpt=   6 by node    0
P newkpt: treating     14 bands with npw=      80 for ikpt=   7 by node    0
P newkpt: treating     14 bands with npw=      79 for ikpt=   8 by node    0
P newkpt: treating     14 bands with npw=      79 for ikpt=   9 by node    0
P newkpt: treating     14 bands with npw=      81 for ikpt=  10 by node    0
P newkpt: treating     14 bands with npw=      76 for ikpt=  11 by node    0
P newkpt: treating     14 bands with npw=      79 for ikpt=  12 by node    0
P newkpt: treating     14 bands with npw=      80 for ikpt=  13 by node    0
P newkpt: treating     14 bands with npw=      81 for ikpt=  14 by node    0
P newkpt: treating     14 bands with npw=      80 for ikpt=  15 by node    0
P newkpt: treating     14 bands with npw=      80 for ikpt=  16 by node    0
P newkpt: treating     14 bands with npw=      83 for ikpt=  17 by node    0
P newkpt: treating     14 bands with npw=      84 for ikpt=  18 by node    0
P newkpt: treating     14 bands with npw=      75 for ikpt=  19 by node    0
P newkpt: treating     14 bands with npw=      77 for ikpt=  20 by node    0
P newkpt: treating     14 bands with npw=      83 for ikpt=  21 by node    0
P newkpt: treating     14 bands with npw=      79 for ikpt=  22 by node    0
P newkpt: treating     14 bands with npw=      84 for ikpt=  23 by node    0
P newkpt: treating     14 bands with npw=      81 for ikpt=  24 by node    0
P newkpt: treating     14 bands with npw=      80 for ikpt=  25 by node    0
P newkpt: treating     14 bands with npw=      68 for ikpt=  26 by node    0
P newkpt: treating     14 bands with npw=      74 for ikpt=  27 by node    0
P newkpt: treating     14 bands with npw=      77 for ikpt=  28 by node    0
P newkpt: treating     14 bands with npw=      73 for ikpt=   1 by node    0
P newkpt: treating     14 bands with npw=      76 for ikpt=   2 by node    0
P newkpt: treating     14 bands with npw=      79 for ikpt=   3 by node    0
P newkpt: treating     14 bands with npw=      78 for ikpt=   4 by node    0
P newkpt: treating     14 bands with npw=      80 for ikpt=   5 by node    0
P newkpt: treating     14 bands with npw=      79 for ikpt=   6 by node    0
P newkpt: treating     14 bands with npw=      80 for ikpt=   7 by node    0
P newkpt: treating     14 bands with npw=      79 for ikpt=   8 by node    0
P newkpt: treating     14 bands with npw=      79 for ikpt=   9 by node    0
P newkpt: treating     14 bands with npw=      81 for ikpt=  10 by node    0
P newkpt: treating     14 bands with npw=      76 for ikpt=  11 by node    0
P newkpt: treating     14 bands with npw=      79 for ikpt=  12 by node    0
P newkpt: treating     14 bands with npw=      80 for ikpt=  13 by node    0
P newkpt: treating     14 bands with npw=      81 for ikpt=  14 by node    0
P newkpt: treating     14 bands with npw=      80 for ikpt=  15 by node    0
P newkpt: treating     14 bands with npw=      80 for ikpt=  16 by node    0
P newkpt: treating     14 bands with npw=      83 for ikpt=  17 by node    0
P newkpt: treating     14 bands with npw=      84 for ikpt=  18 by node    0
P newkpt: treating     14 bands with npw=      75 for ikpt=  19 by node    0
P newkpt: treating     14 bands with npw=      77 for ikpt=  20 by node    0
P newkpt: treating     14 bands with npw=      83 for ikpt=  21 by node    0
P newkpt: treating     14 bands with npw=      79 for ikpt=  22 by node    0
P newkpt: treating     14 bands with npw=      84 for ikpt=  23 by node    0
P newkpt: treating     14 bands with npw=      81 for ikpt=  24 by node    0
P newkpt: treating     14 bands with npw=      80 for ikpt=  25 by node    0
P newkpt: treating     14 bands with npw=      68 for ikpt=  26 by node    0
P newkpt: treating     14 bands with npw=      74 for ikpt=  27 by node    0
P newkpt: treating     14 bands with npw=      77 for ikpt=  28 by node    0

_setup2: Arith. and geom. avg. npw (full set) are      79.611      79.563

================================================================================

     iter   Etot(hartree)     deltaE(h) residm    nres2    magn
 ETOT  1  -42.352551454744    -4.24E+01 2.75E+00 5.14E+02 1.507
 ETOT  2  -41.309143897120     1.04E+00 4.09E-02 4.08E+02 0.000
 ETOT  3  -39.454777507247     1.85E+00 1.01E-01 1.16E+02 0.067
 ETOT  4  -39.243995364107     2.11E-01 1.11E-01 1.86E+01 0.438
 ETOT  5  -39.219308928958     2.47E-02 8.07E-02 6.86E+00 0.405
 ETOT  6  -39.233944350902    -1.46E-02 2.47E-02 3.15E+00 0.383

 Cartesian components of stress tensor (hartree/bohr^3)
  sigma(1 1)=  1.97919879E-02  sigma(3 2)=  0.00000000E+00
  sigma(2 2)=  1.97919879E-02  sigma(3 1)=  0.00000000E+00
  sigma(3 3)=  1.97919879E-02  sigma(2 1)=  0.00000000E+00


 scprqt:  WARNING -
  nstep=    6 was not enough SCF cycles to converge;
  density residual=  3.149E+00 exceeds tolvrs=  1.000E-09


 PAW TEST:
 ==== Compensation charge inside spheres ============
 The following values must be close to each other ...
 Compensation charge over spherical meshes =      5.132514950509091
 Compensation charge over fine fft grid    =      5.338891877831077

 ==== Results concerning PAW augmentation regions ====

 Total pseudopotential strength Dij (hartree):
 Atom #  1 - Spin component 1
   0.31467   0.03391   0.00000   0.00000   0.00000   0.00000   0.00000   0.00000   0.00000   0.00000   0.00000   0.00000 ...
   0.03391  -1.25647   0.00000   0.00000   0.00000   0.00000   0.00000   0.00000   0.00000   0.00000   0.00000   0.00000 ...
   0.00000   0.00000   0.05020   0.00000   0.00000   0.02196   0.00000   0.00000   0.00000   0.00000   0.00000   0.00000 ...
   0.00000   0.00000   0.00000   0.05020   0.00000   0.00000   0.02196   0.00000   0.00000   0.00000   0.00000   0.00000 ...
   0.00000   0.00000   0.00000   0.00000   0.05020   0.00000   0.00000   0.02196   0.00000   0.00000   0.00000   0.00000 ...
   0.00000   0.00000   0.02196   0.00000   0.00000  -0.76946   0.00000   0.00000   0.00000   0.00000   0.00000   0.00000 ...
   0.00000   0.00000   0.00000   0.02196   0.00000   0.00000  -0.76946   0.00000   0.00000   0.00000   0.00000   0.00000 ...
   0.00000   0.00000   0.00000   0.00000   0.02196   0.00000   0.00000  -0.76946   0.00000   0.00000   0.00000   0.00000 ...
   0.00000   0.00000   0.00000   0.00000   0.00000   0.00000   0.00000   0.00000  -0.40847   0.00000   0.00000   0.00000 ...
   0.00000   0.00000   0.00000   0.00000   0.00000   0.00000   0.00000   0.00000   0.00000  -0.40847   0.00000   0.00000 ...
   0.00000   0.00000   0.00000   0.00000   0.00000   0.00000   0.00000   0.00000   0.00000   0.00000  -0.40687   0.00000 ...
   0.00000   0.00000   0.00000   0.00000   0.00000   0.00000   0.00000   0.00000   0.00000   0.00000   0.00000  -0.40847 ...
   ...  only 12  components have been written...
 Atom #  1 - Spin component 2
   0.31368   0.03900   0.00000   0.00000   0.00000   0.00000   0.00000   0.00000   0.00000   0.00000   0.00000   0.00000 ...
   0.03900  -1.25620   0.00000   0.00000   0.00000   0.00000   0.00000   0.00000   0.00000   0.00000   0.00000   0.00000 ...
   0.00000   0.00000   0.05033   0.00000   0.00000   0.02382   0.00000   0.00000   0.00000   0.00000   0.00000   0.00000 ...
   0.00000   0.00000   0.00000   0.05033   0.00000   0.00000   0.02382   0.00000   0.00000   0.00000   0.00000   0.00000 ...
   0.00000   0.00000   0.00000   0.00000   0.05033   0.00000   0.00000   0.02382   0.00000   0.00000   0.00000   0.00000 ...
   0.00000   0.00000   0.02382   0.00000   0.00000  -0.77005   0.00000   0.00000   0.00000   0.00000   0.00000   0.00000 ...
   0.00000   0.00000   0.00000   0.02382   0.00000   0.00000  -0.77005   0.00000   0.00000   0.00000   0.00000   0.00000 ...
   0.00000   0.00000   0.00000   0.00000   0.02382   0.00000   0.00000  -0.77005   0.00000   0.00000   0.00000   0.00000 ...
   0.00000   0.00000   0.00000   0.00000   0.00000   0.00000   0.00000   0.00000  -0.39054   0.00000   0.00000   0.00000 ...
   0.00000   0.00000   0.00000   0.00000   0.00000   0.00000   0.00000   0.00000   0.00000  -0.39054   0.00000   0.00000 ...
   0.00000   0.00000   0.00000   0.00000   0.00000   0.00000   0.00000   0.00000   0.00000   0.00000  -0.39034   0.00000 ...
   0.00000   0.00000   0.00000   0.00000   0.00000   0.00000   0.00000   0.00000   0.00000   0.00000   0.00000  -0.39054 ...
   ...  only 12  components have been written...


 Augmentation waves occupancies Rhoij:
 Atom #  1 - Spin component 1
   0.59077  -0.04996   0.00000   0.00000   0.00000   0.00000   0.00000   0.00000   0.00000   0.00000   0.00000   0.00000 ...
  -0.04996   0.01014   0.00000   0.00000   0.00000   0.00000   0.00000   0.00000   0.00000   0.00000   0.00000   0.00000 ...
   0.00000   0.00000   0.30111   0.00000   0.00000  -0.00869   0.00000   0.00000   0.00000   0.00000   0.00000   0.00000 ...
   0.00000   0.00000   0.00000   0.30111   0.00000   0.00000  -0.00869   0.00000   0.00000   0.00000   0.00000   0.00000 ...
   0.00000   0.00000   0.00000   0.00000   0.30111   0.00000   0.00000  -0.00869   0.00000   0.00000   0.00000   0.00000 ...
   0.00000   0.00000  -0.00869   0.00000   0.00000   0.00267   0.00000   0.00000   0.00000   0.00000   0.00000   0.00000 ...
   0.00000   0.00000   0.00000  -0.00869   0.00000   0.00000   0.00267   0.00000   0.00000   0.00000   0.00000   0.00000 ...
   0.00000   0.00000   0.00000   0.00000  -0.00869   0.00000   0.00000   0.00267   0.00000   0.00000   0.00000   0.00000 ...
   0.00000   0.00000   0.00000   0.00000   0.00000   0.00000   0.00000   0.00000   0.85365   0.00000   0.00000   0.00000 ...
   0.00000   0.00000   0.00000   0.00000   0.00000   0.00000   0.00000   0.00000   0.00000   0.85365   0.00000   0.00000 ...
   0.00000   0.00000   0.00000   0.00000   0.00000   0.00000   0.00000   0.00000   0.00000   0.00000   0.86354   0.00000 ...
   0.00000   0.00000   0.00000   0.00000   0.00000   0.00000   0.00000   0.00000   0.00000   0.00000   0.00000   0.85365 ...
   ...  only 12  components have been written...
 Atom #  1 - Spin component 2
   0.45890  -0.01732   0.00000   0.00000   0.00000   0.00000   0.00000   0.00000   0.00000   0.00000   0.00000   0.00000 ...
  -0.01732   0.00473   0.00000   0.00000   0.00000   0.00000   0.00000   0.00000   0.00000   0.00000   0.00000   0.00000 ...
   0.00000   0.00000   0.30869   0.00000   0.00000  -0.00583   0.00000   0.00000   0.00000   0.00000   0.00000   0.00000 ...
   0.00000   0.00000   0.00000   0.30869   0.00000   0.00000  -0.00583   0.00000   0.00000   0.00000   0.00000   0.00000 ...
   0.00000   0.00000   0.00000   0.00000   0.30869   0.00000   0.00000  -0.00583   0.00000   0.00000   0.00000   0.00000 ...
   0.00000   0.00000  -0.00583   0.00000   0.00000   0.00215   0.00000   0.00000   0.00000   0.00000   0.00000   0.00000 ...
   0.00000   0.00000   0.00000  -0.00583   0.00000   0.00000   0.00215   0.00000   0.00000   0.00000   0.00000   0.00000 ...
   0.00000   0.00000   0.00000   0.00000  -0.00583   0.00000   0.00000   0.00215   0.00000   0.00000   0.00000   0.00000 ...
   0.00000   0.00000   0.00000   0.00000   0.00000   0.00000   0.00000   0.00000   0.75545   0.00000   0.00000   0.00000 ...
   0.00000   0.00000   0.00000   0.00000   0.00000   0.00000   0.00000   0.00000   0.00000   0.75545   0.00000   0.00000 ...
   0.00000   0.00000   0.00000   0.00000   0.00000   0.00000   0.00000   0.00000   0.00000   0.00000   0.79639   0.00000 ...
   0.00000   0.00000   0.00000   0.00000   0.00000   0.00000   0.00000   0.00000   0.00000   0.00000   0.00000   0.75545 ...
   ...  only 12  components have been written...


================================================================================

 ----iterations are completed or convergence reached----

 Mean square residual over all n,k,spin=   5.5858E-04; max=  2.4738E-02
  -0.0833 -0.1667  0.0000    1  9.49871E-04 kpt; spin; max resid(k); each band:
  6.93E-05 6.57E-05 5.39E-05 4.54E-05 4.45E-05 1.17E-05 1.18E-04 8.51E-05
  6.67E-05 2.75E-05 6.63E-05 8.96E-05 8.54E-05 9.50E-04
  -0.0833 -0.3333  0.0000    1  2.49120E-03 kpt; spin; max resid(k); each band:
  1.73E-04 1.43E-04 5.68E-05 1.12E-04 2.46E-05 1.44E-04 1.67E-04 8.61E-05
  8.64E-05 9.90E-05 1.02E-04 2.88E-04 1.30E-04 2.49E-03
  -0.1667 -0.2500  0.0000    1  1.27096E-02 kpt; spin; max resid(k); each band:
  1.54E-04 9.52E-05 1.01E-04 4.89E-05 6.83E-05 1.25E-05 1.55E-04 1.18E-04
  1.92E-04 2.10E-04 1.30E-04 1.26E-04 4.24E-05 1.27E-02
  -0.0833 -0.2500  0.0833    1  1.56508E-02 kpt; spin; max resid(k); each band:
  1.55E-04 1.27E-04 9.12E-05 6.91E-05 5.75E-05 6.10E-05 1.64E-04 1.44E-04
  9.77E-05 1.22E-04 5.78E-05 4.26E-04 2.61E-04 1.57E-02
  -0.0833  0.5000  0.0000    1  1.36621E-03 kpt; spin; max resid(k); each band:
  1.90E-04 1.44E-04 1.45E-04 5.49E-05 3.90E-07 1.28E-04 2.39E-04 8.14E-05
  3.46E-05 9.61E-05 2.80E-04 8.27E-04 1.00E-03 1.37E-03
  -0.1667 -0.4167  0.0000    1  1.87497E-03 kpt; spin; max resid(k); each band:
  1.83E-04 1.20E-04 1.59E-04 7.52E-05 7.08E-06 2.10E-04 1.93E-04 8.41E-05
  1.62E-04 3.06E-04 1.01E-04 6.04E-04 1.39E-04 1.87E-03
  -0.0833 -0.4167  0.0833    1  1.44104E-03 kpt; spin; max resid(k); each band:
  1.97E-04 1.18E-04 1.22E-04 1.07E-04 1.58E-05 1.84E-04 2.17E-04 1.67E-04
  1.46E-04 5.46E-05 7.39E-04 2.03E-04 1.21E-03 1.44E-03
  -0.2500 -0.3333  0.0000    1  2.45263E-02 kpt; spin; max resid(k); each band:
  1.73E-04 1.56E-04 1.05E-04 3.27E-05 1.10E-05 1.91E-04 1.39E-04 9.77E-05
  1.74E-04 6.10E-04 2.16E-04 5.62E-04 3.27E-05 2.45E-02
  -0.1667 -0.3333  0.0833    1  5.54248E-03 kpt; spin; max resid(k); each band:
  1.90E-04 1.45E-04 1.34E-04 6.12E-05 3.54E-05 2.03E-04 1.78E-04 1.45E-04
  1.69E-04 1.87E-04 1.99E-04 4.72E-04 1.28E-04 5.54E-03
  -0.0833 -0.3333  0.1667    1  3.29640E-03 kpt; spin; max resid(k); each band:
  2.13E-04 1.51E-04 8.68E-05 8.51E-05 6.67E-05 2.08E-04 2.25E-04 2.00E-04
  1.76E-04 6.32E-05 2.31E-04 1.38E-03 7.68E-04 3.30E-03
  -0.0833  0.3333  0.0000    1  2.19172E-03 kpt; spin; max resid(k); each band:
  2.08E-04 9.79E-05 1.04E-04 1.18E-04 1.50E-05 1.72E-04 1.86E-04 1.08E-04
  3.56E-05 4.40E-05 5.39E-04 2.27E-04 7.68E-04 2.19E-03
  -0.1667  0.4167  0.0000    1  1.49854E-03 kpt; spin; max resid(k); each band:
  1.90E-04 1.01E-04 1.23E-04 1.05E-04 6.33E-06 1.73E-04 2.56E-04 1.56E-04
  7.33E-05 1.09E-04 4.03E-04 2.47E-04 1.50E-03 3.07E-04
  -0.2500  0.5000  0.0000    1  2.59320E-03 kpt; spin; max resid(k); each band:
  1.66E-04 1.26E-04 1.13E-04 7.64E-05 8.36E-07 2.13E-04 1.97E-04 2.03E-04
  7.45E-05 3.96E-04 4.21E-04 8.62E-04 1.40E-04 2.59E-03
  -0.1667  0.5000  0.0833    1  2.02265E-03 kpt; spin; max resid(k); each band:
  2.09E-04 9.86E-05 1.34E-04 8.37E-05 2.31E-05 1.98E-04 2.59E-04 1.77E-04
  1.64E-04 1.57E-04 6.77E-04 6.67E-04 1.57E-04 2.02E-03
  -0.3333 -0.4167  0.0000    1  1.43386E-02 kpt; spin; max resid(k); each band:
  1.75E-04 2.00E-04 6.70E-05 2.99E-05 3.44E-06 2.01E-04 9.79E-05 1.97E-04
  5.64E-05 1.14E-03 2.95E-04 4.83E-05 2.21E-03 1.43E-02
  -0.2500 -0.4167  0.0833    1  3.51770E-03 kpt; spin; max resid(k); each band:
  1.65E-04 1.66E-04 1.19E-04 3.69E-05 1.39E-05 2.15E-04 1.60E-04 1.68E-04
  1.66E-04 4.68E-04 3.53E-04 7.64E-04 4.25E-04 3.52E-03
  -0.1667 -0.4167  0.1667    1  3.32224E-03 kpt; spin; max resid(k); each band:
  2.37E-04 1.18E-04 1.63E-04 5.27E-05 2.52E-05 2.35E-04 2.92E-04 2.31E-04
  1.88E-04 1.04E-04 2.16E-04 1.17E-03 3.32E-03 2.22E-04
  -0.0833 -0.4167  0.2500    1  4.01108E-03 kpt; spin; max resid(k); each band:
  1.58E-04 1.32E-04 1.43E-04 4.73E-05 5.10E-05 2.20E-04 2.88E-04 2.51E-04
  2.34E-04 3.55E-04 5.79E-04 6.83E-04 4.01E-03 2.76E-04
  -0.0833  0.1667  0.0000    1  1.35928E-03 kpt; spin; max resid(k); each band:
  9.53E-05 8.85E-05 3.66E-05 2.04E-05 5.87E-05 2.69E-05 1.34E-04 1.40E-04
  3.07E-05 1.86E-05 6.30E-05 1.52E-04 4.36E-05 1.36E-03
  -0.1667  0.2500  0.0000    1  5.23166E-04 kpt; spin; max resid(k); each band:
  2.00E-04 1.54E-04 4.57E-05 1.05E-04 1.10E-04 9.75E-05 1.99E-04 1.55E-04
  8.90E-05 8.39E-05 7.02E-05 1.64E-04 2.39E-04 5.23E-04
  -0.2500  0.3333  0.0000    1  4.38428E-03 kpt; spin; max resid(k); each band:
  2.25E-04 7.85E-05 1.30E-04 9.40E-05 5.55E-05 2.46E-04 2.16E-04 2.37E-04
  9.76E-05 4.83E-04 9.45E-04 2.38E-04 3.54E-03 4.38E-03
  -0.3333  0.4167  0.0000    1  2.41318E-03 kpt; spin; max resid(k); each band:
  1.07E-04 1.86E-04 1.05E-04 5.78E-05 1.58E-05 1.88E-04 2.73E-04 2.07E-04
  6.30E-05 2.67E-04 1.21E-03 1.27E-04 2.45E-04 2.41E-03
  -0.4167  0.5000  0.0000    1  2.47376E-02 kpt; spin; max resid(k); each band:
  1.31E-04 2.03E-04 1.08E-05 4.16E-05 5.29E-06 1.05E-04 2.59E-04 9.05E-05
  1.73E-05 2.37E-03 3.43E-04 3.37E-05 2.47E-02 1.44E-02
  -0.3333  0.5000  0.0833    1  2.58163E-03 kpt; spin; max resid(k); each band:
  1.01E-04 1.95E-04 1.08E-04 2.76E-05 1.02E-05 1.80E-04 1.78E-04 2.13E-04
  1.04E-04 4.33E-04 4.44E-04 4.78E-04 2.58E-03 8.88E-04
  -0.2500  0.5000  0.1667    1  2.62458E-03 kpt; spin; max resid(k); each band:
  8.44E-05 1.88E-04 1.48E-04 5.59E-05 1.20E-05 1.95E-04 1.80E-04 2.86E-04
  1.94E-04 2.15E-04 1.83E-04 2.50E-04 9.71E-04 2.62E-03
  -0.0833  0.0000  0.0000    1  1.07340E-04 kpt; spin; max resid(k); each band:
  7.12E-05 4.28E-05 2.04E-05 2.06E-05 1.08E-05 1.07E-05 7.43E-05 3.57E-05
  2.81E-05 2.87E-05 7.43E-05 8.24E-05 8.30E-05 1.07E-04
  -0.2500  0.0000  0.0000    1  1.12056E-03 kpt; spin; max resid(k); each band:
  1.27E-04 9.42E-05 3.04E-05 2.98E-05 5.28E-05 5.23E-05 1.41E-04 5.80E-05
  6.69E-05 6.69E-05 2.22E-04 1.26E-04 1.26E-04 1.12E-03
  -0.4167  0.0000  0.0000    1  3.60487E-03 kpt; spin; max resid(k); each band:
  2.27E-04 1.17E-04 1.25E-04 6.18E-06 5.84E-06 7.68E-05 1.80E-04 3.72E-05
  1.77E-05 1.77E-05 2.29E-03 2.47E-04 2.48E-04 3.60E-03
  -0.0833 -0.1667  0.0000    2  9.88330E-04 kpt; spin; max resid(k); each band:
  1.22E-04 2.44E-04 1.43E-04 1.90E-04 1.58E-04 3.11E-05 5.75E-04 2.45E-04
  3.72E-04 2.69E-04 3.06E-04 3.23E-04 3.75E-04 9.88E-04
  -0.0833 -0.3333  0.0000    2  9.42181E-04 kpt; spin; max resid(k); each band:
  8.20E-04 7.76E-04 2.00E-04 4.03E-04 3.63E-04 6.99E-05 6.85E-04 2.52E-04
  3.21E-04 3.01E-04 2.69E-04 4.05E-04 5.48E-04 9.42E-04
  -0.1667 -0.2500  0.0000    2  7.13095E-04 kpt; spin; max resid(k); each band:
  5.03E-04 5.18E-04 3.44E-04 1.33E-04 2.82E-04 3.06E-05 6.03E-04 4.02E-04
  6.60E-04 5.33E-04 3.07E-04 2.73E-04 1.54E-04 7.13E-04
  -0.0833 -0.2500  0.0833    2  6.63098E-04 kpt; spin; max resid(k); each band:
  4.56E-04 5.23E-04 3.02E-04 2.54E-04 2.38E-04 1.69E-04 6.63E-04 5.52E-04
  4.13E-04 3.67E-04 2.20E-04 5.30E-04 5.34E-04 4.02E-04
  -0.0833  0.5000  0.0000    2  1.05866E-03 kpt; spin; max resid(k); each band:
  1.06E-03 5.94E-04 4.41E-04 4.78E-04 5.78E-06 8.75E-04 6.62E-04 3.54E-04
  8.72E-05 2.88E-04 8.26E-04 8.86E-04 9.21E-04 5.19E-04
  -0.1667 -0.4167  0.0000    2  1.15349E-03 kpt; spin; max resid(k); each band:
  1.15E-03 8.11E-04 5.53E-04 2.73E-04 1.94E-05 7.63E-04 6.79E-04 2.39E-04
  6.04E-04 5.26E-04 3.22E-04 8.13E-04 3.82E-04 8.56E-04
  -0.0833 -0.4167  0.0833    2  1.20134E-03 kpt; spin; max resid(k); each band:
  1.07E-03 6.34E-04 6.23E-04 4.40E-04 5.73E-05 8.63E-04 7.37E-04 4.45E-04
  4.78E-04 2.13E-04 8.09E-04 5.22E-04 5.44E-04 1.20E-03
  -0.2500 -0.3333  0.0000    2  1.15045E-03 kpt; spin; max resid(k); each band:
  1.15E-03 6.36E-04 4.93E-04 1.06E-04 2.33E-05 5.57E-04 5.09E-04 3.35E-04
  7.06E-04 5.10E-04 6.88E-04 3.77E-04 1.07E-04 4.26E-04
  -0.1667 -0.3333  0.0833    2  1.10705E-03 kpt; spin; max resid(k); each band:
  1.11E-03 6.34E-04 4.47E-04 2.31E-04 1.35E-04 5.56E-04 6.21E-04 4.51E-04
  6.45E-04 4.36E-04 4.43E-04 6.21E-04 3.03E-04 8.49E-04
  -0.0833 -0.3333  0.1667    2  2.49024E-03 kpt; spin; max resid(k); each band:
  1.12E-03 8.10E-04 4.00E-04 3.15E-04 1.55E-04 7.51E-04 7.44E-04 5.59E-04
  5.71E-04 2.32E-04 4.45E-04 7.45E-04 5.13E-04 2.49E-03
  -0.0833  0.3333  0.0000    2  9.83023E-04 kpt; spin; max resid(k); each band:
  9.83E-04 3.31E-04 8.82E-04 4.05E-04 1.35E-04 5.22E-04 6.77E-04 4.49E-04
  1.43E-04 2.35E-04 5.06E-04 7.85E-04 5.50E-04 4.20E-04
  -0.1667  0.4167  0.0000    2  1.10746E-03 kpt; spin; max resid(k); each band:
  9.79E-04 6.89E-04 3.94E-04 5.72E-04 1.32E-05 9.14E-04 6.80E-04 5.40E-04
  2.14E-04 3.30E-04 6.54E-04 6.61E-04 1.11E-03 4.62E-04
  -0.2500  0.5000  0.0000    2  1.16266E-03 kpt; spin; max resid(k); each band:
  1.01E-03 8.32E-04 5.18E-04 2.56E-04 8.72E-07 8.73E-04 6.57E-04 6.60E-04
  2.35E-04 6.75E-04 4.86E-04 3.34E-04 9.70E-04 1.16E-03
  -0.1667  0.5000  0.0833    2  1.19534E-03 kpt; spin; max resid(k); each band:
  9.11E-04 8.30E-04 5.55E-04 2.81E-04 4.46E-05 9.13E-04 6.95E-04 5.82E-04
  5.07E-04 3.11E-04 7.37E-04 6.60E-04 3.75E-04 1.20E-03
  -0.3333 -0.4167  0.0000    2  1.19156E-03 kpt; spin; max resid(k); each band:
  1.19E-03 7.73E-04 2.69E-04 9.32E-05 1.34E-05 7.65E-04 2.42E-04 8.09E-04
  2.36E-04 6.26E-04 9.51E-04 1.23E-04 7.61E-04 6.94E-05
  -0.2500 -0.4167  0.0833    2  1.17978E-03 kpt; spin; max resid(k); each band:
  1.14E-03 8.31E-04 5.16E-04 1.29E-04 4.76E-05 8.36E-04 5.35E-04 5.48E-04
  5.72E-04 6.01E-04 6.76E-04 6.91E-04 2.71E-04 1.18E-03
  -0.1667 -0.4167  0.1667    2  1.10531E-03 kpt; spin; max resid(k); each band:
  9.80E-04 7.23E-04 6.18E-04 2.49E-04 6.55E-05 9.38E-04 7.30E-04 5.60E-04
  7.23E-04 2.57E-04 5.38E-04 1.11E-03 1.97E-04 1.06E-03
  -0.0833 -0.4167  0.2500    2  1.94519E-03 kpt; spin; max resid(k); each band:
  7.88E-04 8.76E-04 5.64E-04 2.71E-04 7.94E-05 9.49E-04 7.36E-04 6.35E-04
  5.45E-04 5.28E-04 4.87E-04 4.09E-04 2.37E-04 1.95E-03
  -0.0833  0.1667  0.0000    2  7.96131E-04 kpt; spin; max resid(k); each band:
  1.23E-04 3.22E-04 1.28E-04 3.79E-04 2.06E-04 7.23E-05 6.23E-04 5.91E-04
  1.97E-04 2.27E-04 1.99E-04 5.61E-04 1.99E-04 7.96E-04
  -0.1667  0.2500  0.0000    2  8.34715E-04 kpt; spin; max resid(k); each band:
  8.35E-04 5.89E-04 3.04E-04 3.45E-04 2.65E-04 3.43E-04 6.75E-04 5.61E-04
  1.80E-04 3.36E-04 1.85E-04 5.63E-04 5.59E-04 3.61E-04
  -0.2500  0.3333  0.0000    2  9.35712E-04 kpt; spin; max resid(k); each band:
  7.90E-04 7.05E-04 5.17E-04 3.73E-04 1.64E-04 9.04E-04 7.94E-04 6.35E-04
  3.92E-04 5.55E-04 4.33E-04 5.31E-04 4.79E-04 9.36E-04
  -0.3333  0.4167  0.0000    2  1.33021E-03 kpt; spin; max resid(k); each band:
  9.45E-04 8.20E-04 4.93E-04 1.42E-04 3.92E-05 7.83E-04 7.52E-04 6.73E-04
  2.42E-04 8.50E-04 6.99E-04 2.60E-04 2.32E-04 1.33E-03
  -0.4167  0.5000  0.0000    2  1.18698E-03 kpt; spin; max resid(k); each band:
  1.19E-03 8.06E-04 2.90E-05 1.72E-04 1.17E-05 4.72E-04 7.47E-04 2.99E-04
  7.26E-05 6.75E-04 1.13E-03 6.76E-05 5.46E-04 6.93E-04
  -0.3333  0.5000  0.0833    2  1.14569E-03 kpt; spin; max resid(k); each band:
  9.92E-04 7.52E-04 4.30E-04 1.40E-04 2.33E-05 7.10E-04 4.25E-04 7.66E-04
  3.95E-04 6.83E-04 7.25E-04 3.96E-04 4.42E-04 1.15E-03
  -0.2500  0.5000  0.1667    2  8.90146E-04 kpt; spin; max resid(k); each band:
  8.90E-04 6.97E-04 6.10E-04 2.72E-04 1.68E-05 7.35E-04 6.40E-04 6.20E-04
  7.74E-04 4.13E-04 4.38E-04 4.94E-04 8.07E-04 7.68E-05
  -0.0833  0.0000  0.0000    2  4.06297E-04 kpt; spin; max resid(k); each band:
  9.21E-05 1.61E-04 6.91E-05 7.25E-05 3.16E-05 3.21E-05 3.01E-04 2.48E-04
  2.81E-04 2.79E-04 3.15E-04 4.04E-04 4.06E-04 3.33E-04
  -0.2500  0.0000  0.0000    2  6.68545E-04 kpt; spin; max resid(k); each band:
  3.45E-04 5.23E-04 9.88E-05 4.03E-04 1.51E-04 1.50E-04 6.69E-04 2.36E-04
  2.41E-04 2.59E-04 1.99E-04 4.43E-04 4.57E-04 6.12E-04
  -0.4167  0.0000  0.0000    2  1.12165E-03 kpt; spin; max resid(k); each band:
  1.12E-03 4.09E-04 4.47E-04 2.13E-05 4.07E-05 5.33E-04 7.28E-04 4.10E-05
  3.96E-05 2.07E-04 8.61E-04 8.70E-04 9.47E-04 4.84E-04
 reduced coordinates (array xred) for    1 atoms
       0.000000000000      0.000000000000      0.000000000000
 rms dE/dt=  0.0000E+00; max dE/dt=  0.0000E+00; dE/dt below (all hartree)
    1       0.000000000000      0.000000000000      0.000000000000

 cartesian coordinates (angstrom) at end:
    1      0.00000000000000     0.00000000000000     0.00000000000000

 cartesian forces (hartree/bohr) at end:
    1     -0.00000000000000    -0.00000000000000    -0.00000000000000
 frms,max,avg= 0.0000000E+00 0.0000000E+00   0.000E+00  0.000E+00  0.000E+00 h/b

 cartesian forces (eV/Angstrom) at end:
    1     -0.00000000000000    -0.00000000000000    -0.00000000000000
 frms,max,avg= 0.0000000E+00 0.0000000E+00   0.000E+00  0.000E+00  0.000E+00 e/A
 length scales=  6.651835987757  6.651835987757  6.651835987757 bohr
              =  3.520000000000  3.520000000000  3.520000000000 angstroms
 Fermi (or HOMO) energy (hartree) =   0.24147   Average Vxc (hartree)=  -0.43270
 Magnetization (Bohr magneton)=  3.83439282E-01
 Total spin up =  5.19171964E+00   Total spin down =  4.80828036E+00
 Eigenvalues (hartree) for nkpt=  28  k points, SPIN UP:
 kpt#   1, nband= 14, wtk=  0.02778, kpt= -0.0833 -0.1667  0.0000 (reduced coord)
   0.04873   0.16123   0.17408   0.18572   0.20476   0.21148   1.14867   1.25917
   1.26489   1.35604   1.48332   1.68126   1.68202   1.84079
      occupation numbers for kpt#   1
   1.00000   1.00000   1.00000   1.00000   1.00000   1.00000   0.00000   0.00000
   0.00000   0.00000   0.00000   0.00000   0.00000   0.00000
 kpt#   2, nband= 14, wtk=  0.02778, kpt= -0.0833 -0.3333  0.0000 (reduced coord)
   0.10145   0.16974   0.17828   0.18281   0.21252   0.22567   0.81742   1.19370
   1.22547   1.28956   1.53896   1.65664   1.65742   1.82886
      occupation numbers for kpt#   2
   1.00000   1.00000   1.00000   1.00000   1.00000   0.99856   0.00000   0.00000
   0.00000   0.00000   0.00000   0.00000   0.00000   0.00000
 kpt#   3, nband= 14, wtk=  0.02778, kpt= -0.1667 -0.2500  0.0000 (reduced coord)
   0.08923   0.14806   0.17080   0.17595   0.19916   0.20228   1.04424   1.13456
   1.24829   1.29325   1.34534   1.72464   1.73391   1.90257
      occupation numbers for kpt#   3
   1.00000   1.00000   1.00000   1.00000   1.00000   1.00000   0.00000   0.00000
   0.00000   0.00000   0.00000   0.00000   0.00000   0.00000
 kpt#   4, nband= 14, wtk=  0.05556, kpt= -0.0833 -0.2500  0.0833 (reduced coord)
   0.10317   0.14537   0.16916   0.18495   0.19832   0.22793   0.93454   1.07266
   1.27484   1.34353   1.44482   1.61224   1.75859   1.84949
      occupation numbers for kpt#   4
   1.00000   1.00000   1.00000   1.00000   1.00000   0.99467   0.00000   0.00000
   0.00000   0.00000   0.00000   0.00000   0.00000   0.00000
 kpt#   5, nband= 14, wtk=  0.02778, kpt= -0.0833  0.5000  0.0000 (reduced coord)
   0.09730   0.16357   0.16573   0.20072   0.21547   0.35263   0.56597   1.15222
   1.18583   1.19937   1.62029   1.64084   1.71096   1.94829
      occupation numbers for kpt#   5
   1.00000   1.00000   1.00000   1.00000   1.00000   0.00000   0.00000   0.00000
   0.00000   0.00000   0.00000   0.00000   0.00000   0.00000
 kpt#   6, nband= 14, wtk=  0.02778, kpt= -0.1667 -0.4167  0.0000 (reduced coord)
   0.11056   0.14847   0.17329   0.18230   0.22189   0.29751   0.72966   1.09214
   1.10379   1.22705   1.59308   1.71415   1.72259   1.85886
      occupation numbers for kpt#   6
   1.00000   1.00000   1.00000   1.00000   0.99989   0.00000   0.00000   0.00000
   0.00000   0.00000   0.00000   0.00000   0.00000   0.00000
 kpt#   7, nband= 14, wtk=  0.05556, kpt= -0.0833 -0.4167  0.0833 (reduced coord)
   0.10360   0.15610   0.17451   0.18503   0.21351   0.34256   0.63382   1.05718
   1.13135   1.25742   1.60687   1.69044   1.79399   1.84493
      occupation numbers for kpt#   7
   1.00000   1.00000   1.00000   1.00000   1.00000   0.00000   0.00000   0.00000
   0.00000   0.00000   0.00000   0.00000   0.00000   0.00000
 kpt#   8, nband= 14, wtk=  0.02778, kpt= -0.2500 -0.3333  0.0000 (reduced coord)
   0.11082   0.13386   0.18210   0.19388   0.20884   0.24476   0.95186   1.02460
   1.07620   1.25019   1.34294   1.82914   1.83117   2.03536
      occupation numbers for kpt#   8
   1.00000   1.00000   1.00000   1.00000   1.00000   0.26745   0.00000   0.00000
   0.00000   0.00000   0.00000   0.00000   0.00000   0.00000
 kpt#   9, nband= 14, wtk=  0.05556, kpt= -0.1667 -0.3333  0.0833 (reduced coord)
   0.11999   0.13826   0.16011   0.19495   0.21193   0.28347   0.84806   0.98253
   1.09143   1.31099   1.45450   1.69455   1.83630   1.95252
      occupation numbers for kpt#   9
   1.00000   1.00000   1.00000   1.00000   1.00000   0.00000   0.00000   0.00000
   0.00000   0.00000   0.00000   0.00000   0.00000   0.00000
 kpt#  10, nband= 14, wtk=  0.05556, kpt= -0.0833 -0.3333  0.1667 (reduced coord)
   0.12309   0.15065   0.15153   0.18871   0.19941   0.33813   0.75141   0.90109
   1.12296   1.32827   1.53262   1.70090   1.78862   1.97014
      occupation numbers for kpt#  10
   1.00000   1.00000   1.00000   1.00000   1.00000   0.00000   0.00000   0.00000
   0.00000   0.00000   0.00000   0.00000   0.00000   0.00000
 kpt#  11, nband= 14, wtk=  0.02778, kpt= -0.0833  0.3333  0.0000 (reduced coord)
   0.10366   0.17210   0.18133   0.19327   0.20604   0.26797   0.71936   1.12960
   1.23433   1.28507   1.57016   1.61367   1.73094   1.95174
      occupation numbers for kpt#  11
   1.00000   1.00000   1.00000   1.00000   1.00000   0.00000   0.00000   0.00000
   0.00000   0.00000   0.00000   0.00000   0.00000   0.00000
 kpt#  12, nband= 14, wtk=  0.02778, kpt= -0.1667  0.4167  0.0000 (reduced coord)
   0.11312   0.15662   0.17484   0.18239   0.21233   0.40850   0.58079   0.99748
   1.14987   1.21785   1.66905   1.68036   1.87647   1.92128
      occupation numbers for kpt#  12
   1.00000   1.00000   1.00000   1.00000   1.00000   0.00000   0.00000   0.00000
   0.00000   0.00000   0.00000   0.00000   0.00000   0.00000
 kpt#  13, nband= 14, wtk=  0.02778, kpt= -0.2500  0.5000  0.0000 (reduced coord)
   0.11657   0.13443   0.16989   0.19106   0.22589   0.40276   0.66948   0.92017
   1.01935   1.23699   1.60057   1.78318   1.78491   2.00125
      occupation numbers for kpt#  13
   1.00000   1.00000   1.00000   1.00000   0.99835   0.00000   0.00000   0.00000
   0.00000   0.00000   0.00000   0.00000   0.00000   0.00000
 kpt#  14, nband= 14, wtk=  0.05556, kpt= -0.1667  0.5000  0.0833 (reduced coord)
   0.12019   0.14207   0.16346   0.18326   0.21798   0.44697   0.58933   0.95324
   1.01091   1.28044   1.63038   1.77265   1.82222   1.93523
      occupation numbers for kpt#  14
   1.00000   1.00000   1.00000   1.00000   1.00000   0.00000   0.00000   0.00000
   0.00000   0.00000   0.00000   0.00000   0.00000   0.00000
 kpt#  15, nband= 14, wtk=  0.02778, kpt= -0.3333 -0.4167  0.0000 (reduced coord)
   0.10305   0.12050   0.19845   0.21353   0.21518   0.33179   0.87253   0.88951
   0.94119   1.24740   1.35031   1.92705   1.95587   2.18013
      occupation numbers for kpt#  15
   1.00000   1.00000   1.00000   1.00000   1.00000   0.00000   0.00000   0.00000
   0.00000   0.00000   0.00000   0.00000   0.00000   0.00000
 kpt#  16, nband= 14, wtk=  0.05556, kpt= -0.2500 -0.4167  0.0833 (reduced coord)
   0.11186   0.12630   0.17357   0.21049   0.21847   0.37515   0.78204   0.89799
   0.91928   1.30640   1.45338   1.76032   1.95392   2.05796
      occupation numbers for kpt#  16
   1.00000   1.00000   1.00000   1.00000   0.99999   0.00000   0.00000   0.00000
   0.00000   0.00000   0.00000   0.00000   0.00000   0.00000
 kpt#  17, nband= 14, wtk=  0.05556, kpt= -0.1667 -0.4167  0.1667 (reduced coord)
   0.12383   0.13474   0.14621   0.19690   0.21137   0.43742   0.68884   0.84312
   0.93875   1.37863   1.54388   1.68655   1.92570   1.93023
      occupation numbers for kpt#  17
   1.00000   1.00000   1.00000   1.00000   1.00000   0.00000   0.00000   0.00000
   0.00000   0.00000   0.00000   0.00000   0.00000   0.00000
 kpt#  18, nband= 14, wtk=  0.05556, kpt= -0.0833 -0.4167  0.2500 (reduced coord)
   0.12705   0.13028   0.15055   0.18872   0.20978   0.51460   0.60722   0.79076
   0.98173   1.30397   1.65636   1.74382   1.86208   1.87537
      occupation numbers for kpt#  18
   1.00000   1.00000   1.00000   1.00000   1.00000   0.00000   0.00000   0.00000
   0.00000   0.00000   0.00000   0.00000   0.00000   0.00000
 kpt#  19, nband= 14, wtk=  0.02778, kpt= -0.0833  0.1667  0.0000 (reduced coord)
   0.07042   0.15146   0.18079   0.18218   0.20056   0.21099   1.03703   1.16902
   1.33179   1.41743   1.44273   1.58025   1.72731   1.87534
      occupation numbers for kpt#  19
   1.00000   1.00000   1.00000   1.00000   1.00000   1.00000   0.00000   0.00000
   0.00000   0.00000   0.00000   0.00000   0.00000   0.00000
 kpt#  20, nband= 14, wtk=  0.02778, kpt= -0.1667  0.2500  0.0000 (reduced coord)
   0.11864   0.14977   0.17654   0.18185   0.19802   0.27325   0.83784   0.98036
   1.28216   1.31653   1.49220   1.63671   1.76801   1.90718
      occupation numbers for kpt#  20
   1.00000   1.00000   1.00000   1.00000   1.00000   0.00000   0.00000   0.00000
   0.00000   0.00000   0.00000   0.00000   0.00000   0.00000
 kpt#  21, nband= 14, wtk=  0.02778, kpt= -0.2500  0.3333  0.0000 (reduced coord)
   0.12299   0.14475   0.15589   0.18341   0.19506   0.41325   0.66657   0.83473
   1.13101   1.23798   1.64474   1.73429   1.88707   1.91398
      occupation numbers for kpt#  21
   1.00000   1.00000   1.00000   1.00000   1.00000   0.00000   0.00000   0.00000
   0.00000   0.00000   0.00000   0.00000   0.00000   0.00000
 kpt#  22, nband= 14, wtk=  0.02778, kpt= -0.3333  0.4167  0.0000 (reduced coord)
   0.11856   0.13228   0.18221   0.20234   0.21709   0.52734   0.63602   0.76364
   0.98313   1.25790   1.60129   1.82934   1.84374   2.06092
      occupation numbers for kpt#  22
   1.00000   1.00000   1.00000   1.00000   1.00000   0.00000   0.00000   0.00000
   0.00000   0.00000   0.00000   0.00000   0.00000   0.00000
 kpt#  23, nband= 14, wtk=  0.02778, kpt= -0.4167  0.5000  0.0000 (reduced coord)
   0.09330   0.11261   0.20287   0.20994   0.21057   0.42858   0.73565   0.83651
   0.89417   1.25154   1.34978   1.95347   2.05636   2.28915
      occupation numbers for kpt#  23
   1.00000   1.00000   1.00000   1.00000   1.00000   0.00000   0.00000   0.00000
   0.00000   0.00000   0.00000   0.00000   0.00000   0.00000
 kpt#  24, nband= 14, wtk=  0.05556, kpt= -0.3333  0.5000  0.0833 (reduced coord)
   0.10913   0.11930   0.18887   0.20885   0.21961   0.48357   0.74423   0.75600
   0.87708   1.31795   1.45077   1.81717   2.01312   2.04824
      occupation numbers for kpt#  24
   1.00000   1.00000   1.00000   1.00000   0.99998   0.00000   0.00000   0.00000
   0.00000   0.00000   0.00000   0.00000   0.00000   0.00000
 kpt#  25, nband= 14, wtk=  0.05556, kpt= -0.2500  0.5000  0.1667 (reduced coord)
   0.12388   0.13720   0.16074   0.19805   0.22896   0.56569   0.65867   0.77144
   0.82516   1.42996   1.57512   1.67384   1.84370   2.06428
      occupation numbers for kpt#  25
   1.00000   1.00000   1.00000   1.00000   0.99085   0.00000   0.00000   0.00000
   0.00000   0.00000   0.00000   0.00000   0.00000   0.00000
 kpt#  26, nband= 14, wtk=  0.00926, kpt= -0.0833  0.0000  0.0000 (reduced coord)
   0.02385   0.17078   0.18837   0.18837   0.21263   0.21263   1.23121   1.27551
   1.34361   1.34362   1.57453   1.71455   1.71455   1.75297
      occupation numbers for kpt#  26
   1.00000   1.00000   1.00000   1.00000   1.00000   1.00000   0.00000   0.00000
   0.00000   0.00000   0.00000   0.00000   0.00000   0.00000
 kpt#  27, nband= 14, wtk=  0.00926, kpt= -0.2500  0.0000  0.0000 (reduced coord)
   0.08448   0.16809   0.18457   0.18457   0.20232   0.20232   0.91914   1.25599
   1.31399   1.31399   1.52211   1.60735   1.60735   1.93010
      occupation numbers for kpt#  27
   1.00000   1.00000   1.00000   1.00000   1.00000   1.00000   0.00000   0.00000
   0.00000   0.00000   0.00000   0.00000   0.00000   0.00000
 kpt#  28, nband= 14, wtk=  0.00926, kpt= -0.4167  0.0000  0.0000 (reduced coord)
   0.09012   0.17721   0.17721   0.21276   0.21276   0.28605   0.61518   1.19046
   1.23506   1.23506   1.61778   1.61779   1.62710   2.04725
      occupation numbers for kpt#  28
   1.00000   1.00000   1.00000   1.00000   1.00000   0.00000   0.00000   0.00000
   0.00000   0.00000   0.00000   0.00000   0.00000   0.00000
 Eigenvalues (hartree) for nkpt=  28  k points, SPIN DOWN:
 kpt#   1, nband= 14, wtk=  0.02778, kpt= -0.0833 -0.1667  0.0000 (reduced coord)
   0.05149   0.18321   0.19709   0.20835   0.22589   0.23335   1.15368   1.26427
   1.26609   1.36012   1.49019   1.68383   1.68413   1.84175
      occupation numbers for kpt#   1
   1.00000   1.00000   1.00000   1.00000   0.99835   0.93714   0.00000   0.00000
   0.00000   0.00000   0.00000   0.00000   0.00000   0.00000
 kpt#   2, nband= 14, wtk=  0.02778, kpt= -0.0833 -0.3333  0.0000 (reduced coord)
   0.11335   0.18710   0.20050   0.20402   0.23571   0.24317   0.82511   1.20162
   1.22348   1.29897   1.54099   1.65760   1.65805   1.83400
      occupation numbers for kpt#   2
   1.00000   1.00000   1.00000   1.00000   0.86149   0.37442   0.00000   0.00000
   0.00000   0.00000   0.00000   0.00000   0.00000   0.00000
 kpt#   3, nband= 14, wtk=  0.02778, kpt= -0.1667 -0.2500  0.0000 (reduced coord)
   0.09393   0.16941   0.19299   0.19961   0.21937   0.22462   1.05044   1.14153
   1.24719   1.30010   1.35097   1.72469   1.73473   1.89435
      occupation numbers for kpt#   3
   1.00000   1.00000   1.00000   1.00000   0.99998   0.99926   0.00000   0.00000
   0.00000   0.00000   0.00000   0.00000   0.00000   0.00000
 kpt#   4, nband= 14, wtk=  0.05556, kpt= -0.0833 -0.2500  0.0833 (reduced coord)
   0.11028   0.16582   0.19054   0.20815   0.21968   0.24843   0.94135   1.07890
   1.27637   1.35029   1.44896   1.61196   1.75946   1.83562
      occupation numbers for kpt#   4
   1.00000   1.00000   1.00000   1.00000   0.99998   0.09468   0.00000   0.00000
   0.00000   0.00000   0.00000   0.00000   0.00000   0.00000
 kpt#   5, nband= 14, wtk=  0.02778, kpt= -0.0833  0.5000  0.0000 (reduced coord)
   0.11514   0.18398   0.18709   0.22297   0.23995   0.35717   0.57782   1.15495
   1.19382   1.20260   1.62157   1.64168   1.71630   1.95246
      occupation numbers for kpt#   5
   1.00000   1.00000   1.00000   0.99976   0.61268   0.00000   0.00000   0.00000
   0.00000   0.00000   0.00000   0.00000   0.00000   0.00000
 kpt#   6, nband= 14, wtk=  0.02778, kpt= -0.1667 -0.4167  0.0000 (reduced coord)
   0.12718   0.16690   0.19422   0.20460   0.24566   0.30897   0.73777   1.09933
   1.10909   1.22974   1.59677   1.71531   1.72361   1.86397
      occupation numbers for kpt#   6
   1.00000   1.00000   1.00000   1.00000   0.21496   0.00000   0.00000   0.00000
   0.00000   0.00000   0.00000   0.00000   0.00000   0.00000
 kpt#   7, nband= 14, wtk=  0.05556, kpt= -0.0833 -0.4167  0.0833 (reduced coord)
   0.12163   0.17600   0.19521   0.20597   0.23758   0.35173   0.64323   1.06360
   1.13622   1.26074   1.60827   1.69176   1.79683   1.85073
      occupation numbers for kpt#   7
   1.00000   1.00000   1.00000   1.00000   0.76844   0.00000   0.00000   0.00000
   0.00000   0.00000   0.00000   0.00000   0.00000   0.00000
 kpt#   8, nband= 14, wtk=  0.02778, kpt= -0.2500 -0.3333  0.0000 (reduced coord)
   0.12259   0.15440   0.20329   0.21791   0.23153   0.25871   0.95841   1.03114
   1.08206   1.25451   1.34481   1.82888   1.83006   2.02129
      occupation numbers for kpt#   8
   1.00000   1.00000   1.00000   1.00000   0.96964   0.00058   0.00000   0.00000
   0.00000   0.00000   0.00000   0.00000   0.00000   0.00000
 kpt#   9, nband= 14, wtk=  0.05556, kpt= -0.1667 -0.3333  0.0833 (reduced coord)
   0.13398   0.15771   0.18085   0.21820   0.23430   0.29768   0.85531   0.98918
   1.09684   1.31515   1.45707   1.69511   1.83689   1.95550
      occupation numbers for kpt#   9
   1.00000   1.00000   1.00000   0.99999   0.91205   0.00000   0.00000   0.00000
   0.00000   0.00000   0.00000   0.00000   0.00000   0.00000
 kpt#  10, nband= 14, wtk=  0.05556, kpt= -0.0833 -0.3333  0.1667 (reduced coord)
   0.14072   0.16862   0.17216   0.20996   0.22360   0.35025   0.75944   0.90811
   1.12836   1.33180   1.53325   1.70412   1.79055   1.97216
      occupation numbers for kpt#  10
   1.00000   1.00000   1.00000   1.00000   0.99963   0.00000   0.00000   0.00000
   0.00000   0.00000   0.00000   0.00000   0.00000   0.00000
 kpt#  11, nband= 14, wtk=  0.02778, kpt= -0.0833  0.3333  0.0000 (reduced coord)
   0.11906   0.19342   0.20248   0.21085   0.22984   0.28137   0.72816   1.13493
   1.23478   1.29442   1.57118   1.61435   1.73325   1.88822
      occupation numbers for kpt#  11
   1.00000   1.00000   1.00000   1.00000   0.98585   0.00000   0.00000   0.00000
   0.00000   0.00000   0.00000   0.00000   0.00000   0.00000
 kpt#  12, nband= 14, wtk=  0.02778, kpt= -0.1667  0.4167  0.0000 (reduced coord)
   0.13131   0.17607   0.19620   0.20270   0.23688   0.41541   0.59216   1.00405
   1.15756   1.21816   1.67003   1.68204   1.88250   1.92656
      occupation numbers for kpt#  12
   1.00000   1.00000   1.00000   1.00000   0.80660   0.00000   0.00000   0.00000
   0.00000   0.00000   0.00000   0.00000   0.00000   0.00000
 kpt#  13, nband= 14, wtk=  0.02778, kpt= -0.2500  0.5000  0.0000 (reduced coord)
   0.13442   0.15299   0.19136   0.21343   0.25019   0.41131   0.67760   0.92719
   1.02599   1.23984   1.60400   1.78470   1.78646   2.00562
      occupation numbers for kpt#  13
   1.00000   1.00000   1.00000   1.00000   0.05005   0.00000   0.00000   0.00000
   0.00000   0.00000   0.00000   0.00000   0.00000   0.00000
 kpt#  14, nband= 14, wtk=  0.05556, kpt= -0.1667  0.5000  0.0833 (reduced coord)
   0.13894   0.16048   0.18456   0.20503   0.24246   0.45410   0.59959   0.96047
   1.01673   1.28277   1.63195   1.77675   1.82294   1.94128
      occupation numbers for kpt#  14
   1.00000   1.00000   1.00000   1.00000   0.42588   0.00000   0.00000   0.00000
   0.00000   0.00000   0.00000   0.00000   0.00000   0.00000
 kpt#  15, nband= 14, wtk=  0.02778, kpt= -0.3333 -0.4167  0.0000 (reduced coord)
   0.11861   0.14056   0.22195   0.23656   0.23964   0.33923   0.87991   0.89580
   0.94708   1.25107   1.35249   1.92867   1.94843   2.10013
      occupation numbers for kpt#  15
   1.00000   1.00000   0.99988   0.82296   0.63526   0.00000   0.00000   0.00000
   0.00000   0.00000   0.00000   0.00000   0.00000   0.00000
 kpt#  16, nband= 14, wtk=  0.05556, kpt= -0.2500 -0.4167  0.0833 (reduced coord)
   0.12875   0.14595   0.19497   0.23359   0.24232   0.38426   0.78915   0.90597
   0.92463   1.31040   1.45593   1.76149   1.95363   2.06165
      occupation numbers for kpt#  16
   1.00000   1.00000   1.00000   0.93136   0.43683   0.00000   0.00000   0.00000
   0.00000   0.00000   0.00000   0.00000   0.00000   0.00000
 kpt#  17, nband= 14, wtk=  0.05556, kpt= -0.1667 -0.4167  0.1667 (reduced coord)
   0.14208   0.15403   0.16719   0.21837   0.23639   0.44627   0.69677   0.85065
   0.94491   1.38186   1.54502   1.68995   1.92677   1.93477
      occupation numbers for kpt#  17
   1.00000   1.00000   1.00000   0.99999   0.83097   0.00000   0.00000   0.00000
   0.00000   0.00000   0.00000   0.00000   0.00000   0.00000
 kpt#  18, nband= 14, wtk=  0.05556, kpt= -0.0833 -0.4167  0.2500 (reduced coord)
   0.14566   0.14916   0.17176   0.21041   0.23486   0.52188   0.61582   0.79867
   0.98815   1.30626   1.65694   1.74715   1.86667   1.87782
      occupation numbers for kpt#  18
   1.00000   1.00000   1.00000   1.00000   0.89375   0.00000   0.00000   0.00000
   0.00000   0.00000   0.00000   0.00000   0.00000   0.00000
 kpt#  19, nband= 14, wtk=  0.02778, kpt= -0.0833  0.1667  0.0000 (reduced coord)
   0.07395   0.17310   0.20287   0.20538   0.22174   0.23291   1.04295   1.17383
   1.33279   1.42759   1.44379   1.58183   1.72915   1.78932
      occupation numbers for kpt#  19
   1.00000   1.00000   1.00000   1.00000   0.99990   0.94685   0.00000   0.00000
   0.00000   0.00000   0.00000   0.00000   0.00000   0.00000
 kpt#  20, nband= 14, wtk=  0.02778, kpt= -0.1667  0.2500  0.0000 (reduced coord)
   0.13152   0.16879   0.19582   0.20301   0.22177   0.29052   0.84557   0.98703
   1.28221   1.32601   1.49236   1.63915   1.77080   1.89638
      occupation numbers for kpt#  20
   1.00000   1.00000   1.00000   1.00000   0.99990   0.00000   0.00000   0.00000
   0.00000   0.00000   0.00000   0.00000   0.00000   0.00000
 kpt#  21, nband= 14, wtk=  0.02778, kpt= -0.2500  0.3333  0.0000 (reduced coord)
   0.14208   0.16312   0.17633   0.20494   0.21972   0.42261   0.67474   0.84239
   1.13859   1.23899   1.64378   1.73622   1.88896   1.90304
      occupation numbers for kpt#  21
   1.00000   1.00000   1.00000   1.00000   0.99998   0.00000   0.00000   0.00000
   0.00000   0.00000   0.00000   0.00000   0.00000   0.00000
 kpt#  22, nband= 14, wtk=  0.02778, kpt= -0.3333  0.4167  0.0000 (reduced coord)
   0.13570   0.15133   0.20345   0.22654   0.23998   0.53470   0.64364   0.77230
   0.98948   1.26035   1.60482   1.83118   1.84370   2.06883
      occupation numbers for kpt#  22
   1.00000   1.00000   1.00000   0.99756   0.61095   0.00000   0.00000   0.00000
   0.00000   0.00000   0.00000   0.00000   0.00000   0.00000
 kpt#  23, nband= 14, wtk=  0.02778, kpt= -0.4167  0.5000  0.0000 (reduced coord)
   0.10983   0.13240   0.22588   0.23512   0.23554   0.43303   0.74512   0.84205
   0.89946   1.25461   1.35222   1.95607   2.05535   2.19344
      occupation numbers for kpt#  23
   1.00000   1.00000   0.99836   0.88438   0.86832   0.00000   0.00000   0.00000
   0.00000   0.00000   0.00000   0.00000   0.00000   0.00000
 kpt#  24, nband= 14, wtk=  0.05556, kpt= -0.3333  0.5000  0.0833 (reduced coord)
   0.12578   0.13914   0.21101   0.23117   0.24501   0.49017   0.75206   0.76384
   0.88288   1.32173   1.45363   1.81814   2.01882   2.05081
      occupation numbers for kpt#  24
   1.00000   1.00000   1.00000   0.97396   0.25232   0.00000   0.00000   0.00000
   0.00000   0.00000   0.00000   0.00000   0.00000   0.00000
 kpt#  25, nband= 14, wtk=  0.05556, kpt= -0.2500  0.5000  0.1667 (reduced coord)
   0.14104   0.15715   0.18134   0.21960   0.25432   0.57327   0.66613   0.78036
   0.83122   1.43309   1.57745   1.67567   1.85121   2.06263
      occupation numbers for kpt#  25
   1.00000   1.00000   1.00000   0.99998   0.00771   0.00000   0.00000   0.00000
   0.00000   0.00000   0.00000   0.00000   0.00000   0.00000
 kpt#  26, nband= 14, wtk=  0.00926, kpt= -0.0833  0.0000  0.0000 (reduced coord)
   0.02645   0.19310   0.21062   0.21062   0.23430   0.23430   1.23144   1.27781
   1.34943   1.34943   1.57497   1.72091   1.72091   1.75476
      occupation numbers for kpt#  26
   1.00000   1.00000   1.00000   1.00000   0.91187   0.91184   0.00000   0.00000
   0.00000   0.00000   0.00000   0.00000   0.00000   0.00000
 kpt#  27, nband= 14, wtk=  0.00926, kpt= -0.2500  0.0000  0.0000 (reduced coord)
   0.09057   0.18577   0.20735   0.20737   0.22422   0.22422   0.92587   1.25363
   1.32306   1.32307   1.52358   1.60776   1.60776   1.91286
      occupation numbers for kpt#  27
   1.00000   1.00000   1.00000   1.00000   0.99943   0.99943   0.00000   0.00000
   0.00000   0.00000   0.00000   0.00000   0.00000   0.00000
 kpt#  28, nband= 14, wtk=  0.00926, kpt= -0.4167  0.0000  0.0000 (reduced coord)
   0.10774   0.19801   0.19801   0.23718   0.23718   0.29028   0.62493   1.18750
   1.24372   1.24373   1.61828   1.61829   1.63169   2.01036
      occupation numbers for kpt#  28
   1.00000   1.00000   1.00000   0.79075   0.79069   0.00000   0.00000   0.00000
   0.00000   0.00000   0.00000   0.00000   0.00000   0.00000
 Total charge density [el/Bohr^3]
,     Maximum=    7.0973E-01  at reduced coord.    0.0000    0.0000    0.0000
,Next maximum=    6.9886E-01  at reduced coord.    0.0000    0.0333    0.9667
,     Minimum=    1.9338E-02  at reduced coord.    0.5000    0.5000    0.5000
,Next minimum=    1.9426E-02  at reduced coord.    0.5000    0.5000    0.4667
,  Integrated=    1.0000E+01
 Spin up density      [el/Bohr^3]
,     Maximum=    3.7616E-01  at reduced coord.    0.0000    0.0000    0.0000
,Next maximum=    3.7028E-01  at reduced coord.    0.0000    0.0333    0.9667
,     Minimum=    9.3379E-03  at reduced coord.    0.5000    0.5000    0.5000
,Next minimum=    9.3855E-03  at reduced coord.    0.5000    0.5000    0.4667
,  Integrated=    5.1917E+00
 Spin down density    [el/Bohr^3]
,     Maximum=    3.3356E-01  at reduced coord.    0.0000    0.0000    0.0000
,Next maximum=    3.2857E-01  at reduced coord.    0.0000    0.0333    0.9667
,     Minimum=    9.9998E-03  at reduced coord.    0.5000    0.5000    0.5000
,Next minimum=    1.0040E-02  at reduced coord.    0.5000    0.5000    0.4667
,  Integrated=    4.8083E+00
 Magnetization (spin up - spin down) [el/Bohr^3]
,     Maximum=    4.2597E-02  at reduced coord.    0.0000    0.0000    0.0000
,Next maximum=    4.1708E-02  at reduced coord.    0.0000    0.0333    0.9667
,     Minimum=   -7.6459E-04  at reduced coord.    0.2333    0.2000    0.2000
,Next minimum=   -7.6459E-04  at reduced coord.    0.3667    0.2000    0.2000
,  Integrated=    3.8344E-01
 Relative magnetization (=zeta, between -1 and 1)
,     Maximum=    6.0019E-02  at reduced coord.    0.0000    0.0000    0.0000
,Next maximum=    5.9680E-02  at reduced coord.    0.0000    0.0333    0.9667
,     Minimum=   -3.4227E-02  at reduced coord.    0.5000    0.5000    0.5000
,Next minimum=   -3.3708E-02  at reduced coord.    0.5000    0.5000    0.4667

--------------------------------------------------------------------------------
 Components of total free energy (in Hartree) :

    Kinetic energy  =  8.47791808460182E+00
    Hartree energy  =  3.54564184481696E+00
    XC energy       = -1.93656908976968E+00
    Ewald energy    = -3.44631323032630E+01
    PspCore energy  =  2.79462825007585E+00
    Loc. psp. energy= -1.42373295220455E+01
    Spherical terms = -3.08871110917332E+00
    >>>>> Internal E= -3.89075538447568E+01

    -kT*entropy     = -1.31692616281541E-03
    >>>>>>>>> Etotal= -3.89088707709196E+01

 "Double-counting" decomposition of free energy:
    Band energy     =  1.74665540630073E+00
    Ewald energy    = -3.44631323032630E+01
    PspCore energy  =  2.79462825007585E+00
    Dble-C XC-energy= -3.05496976613100E+00
    Spherical terms = -6.25580901172228E+00
    >>>>> Internal E= -3.92326274247397E+01

    -kT*entropy     = -1.31692616281541E-03
    >>>> Etotal (DC)= -3.92339443509025E+01

  >Total energy in eV           = -1.05876421810663E+03
  >Total DC energy in eV        = -1.06760992007429E+03
--------------------------------------------------------------------------------

 Cartesian components of stress tensor (hartree/bohr^3)
  sigma(1 1)=  1.97919879E-02  sigma(3 2)=  0.00000000E+00
  sigma(2 2)=  1.97919879E-02  sigma(3 1)=  0.00000000E+00
  sigma(3 3)=  1.97919879E-02  sigma(2 1)=  0.00000000E+00

-Cartesian components of stress tensor (GPa)         [Pressure= -5.8230E+02 GPa]
- sigma(1 1)=  5.82300290E+02  sigma(3 2)=  0.00000000E+00
- sigma(2 2)=  5.82300290E+02  sigma(3 1)=  0.00000000E+00
- sigma(3 3)=  5.82300290E+02  sigma(2 1)=  0.00000000E+00

== END DATASET(S) ==============================================================
================================================================================
  
 -outvars: echo values of variables after computation  --------
            acell      6.6518359878E+00  6.6518359878E+00  6.6518359878E+00 Bohr
              amu      5.86900000E+01
             ecut      8.00000000E+00 Hartree
           etotal1    -3.9233944351E+01
            fcart1    -0.0000000000E+00 -0.0000000000E+00 -0.0000000000E+00
-          fftalg         112
           getwfk          -1
              ixc          11
           jdtset        1
              kpt     -8.33333333E-02 -1.66666667E-01  0.00000000E+00
                      -8.33333333E-02 -3.33333333E-01  0.00000000E+00
                      -1.66666667E-01 -2.50000000E-01  0.00000000E+00
                      -8.33333333E-02 -2.50000000E-01  8.33333333E-02
                      -8.33333333E-02  5.00000000E-01  0.00000000E+00
                      -1.66666667E-01 -4.16666667E-01  0.00000000E+00
                      -8.33333333E-02 -4.16666667E-01  8.33333333E-02
                      -2.50000000E-01 -3.33333333E-01  0.00000000E+00
                      -1.66666667E-01 -3.33333333E-01  8.33333333E-02
                      -8.33333333E-02 -3.33333333E-01  1.66666667E-01
                      -8.33333333E-02  3.33333333E-01  0.00000000E+00
                      -1.66666667E-01  4.16666667E-01  0.00000000E+00
                      -2.50000000E-01  5.00000000E-01  0.00000000E+00
                      -1.66666667E-01  5.00000000E-01  8.33333333E-02
                      -3.33333333E-01 -4.16666667E-01  0.00000000E+00
                      -2.50000000E-01 -4.16666667E-01  8.33333333E-02
                      -1.66666667E-01 -4.16666667E-01  1.66666667E-01
                      -8.33333333E-02 -4.16666667E-01  2.50000000E-01
                      -8.33333333E-02  1.66666667E-01  0.00000000E+00
                      -1.66666667E-01  2.50000000E-01  0.00000000E+00
                      -2.50000000E-01  3.33333333E-01  0.00000000E+00
                      -3.33333333E-01  4.16666667E-01  0.00000000E+00
                      -4.16666667E-01  5.00000000E-01  0.00000000E+00
                      -3.33333333E-01  5.00000000E-01  8.33333333E-02
                      -2.50000000E-01  5.00000000E-01  1.66666667E-01
                      -8.33333333E-02  0.00000000E+00  0.00000000E+00
                      -2.50000000E-01  0.00000000E+00  0.00000000E+00
                      -4.16666667E-01  0.00000000E+00  0.00000000E+00
         kptrlatt        6   -6    6     -6    6    6     -6   -6    6
          kptrlen      3.99110159E+01
P           mkmem          28
            natom           1
            nband          14
           ndtset           1
            ngfft          12      12      12
          ngfftdg          30      30      30
             nkpt          28
            nline           6
           nspden           2
           nsppol           2
            nstep           6
             nsym          48
           ntypat           1
              occ      1.000000  1.000000  1.000000  1.000000  1.000000  1.000000
                       0.000000  0.000000  0.000000  0.000000  0.000000  0.000000
                       0.000000  0.000000
                       1.000000  1.000000  1.000000  1.000000  1.000000  0.998559
                       0.000000  0.000000  0.000000  0.000000  0.000000  0.000000
                       0.000000  0.000000
                       1.000000  1.000000  1.000000  1.000000  1.000000  1.000000
                       0.000000  0.000000  0.000000  0.000000  0.000000  0.000000
                       0.000000  0.000000
                       1.000000  1.000000  1.000000  1.000000  1.000000  0.994674
                       0.000000  0.000000  0.000000  0.000000  0.000000  0.000000
                       0.000000  0.000000
                       1.000000  1.000000  1.000000  1.000000  1.000000  0.000000
                       0.000000  0.000000  0.000000  0.000000  0.000000  0.000000
                       0.000000  0.000000
                       1.000000  1.000000  1.000000  1.000000  0.999889  0.000000
                       0.000000  0.000000  0.000000  0.000000  0.000000  0.000000
                       0.000000  0.000000
                       1.000000  1.000000  1.000000  1.000000  1.000000  0.000000
                       0.000000  0.000000  0.000000  0.000000  0.000000  0.000000
                       0.000000  0.000000
                       1.000000  1.000000  1.000000  1.000000  1.000000  0.267449
                       0.000000  0.000000  0.000000  0.000000  0.000000  0.000000
                       0.000000  0.000000
                       1.000000  1.000000  1.000000  1.000000  1.000000  0.000000
                       0.000000  0.000000  0.000000  0.000000  0.000000  0.000000
                       0.000000  0.000000
                       1.000000  1.000000  1.000000  1.000000  1.000000  0.000000
                       0.000000  0.000000  0.000000  0.000000  0.000000  0.000000
                       0.000000  0.000000
                       1.000000  1.000000  1.000000  1.000000  1.000000  0.000000
                       0.000000  0.000000  0.000000  0.000000  0.000000  0.000000
                       0.000000  0.000000
                       1.000000  1.000000  1.000000  1.000000  1.000000  0.000000
                       0.000000  0.000000  0.000000  0.000000  0.000000  0.000000
                       0.000000  0.000000
                       1.000000  1.000000  1.000000  1.000000  0.998354  0.000000
                       0.000000  0.000000  0.000000  0.000000  0.000000  0.000000
                       0.000000  0.000000
                       1.000000  1.000000  1.000000  1.000000  0.999995  0.000000
                       0.000000  0.000000  0.000000  0.000000  0.000000  0.000000
                       0.000000  0.000000
                       1.000000  1.000000  1.000000  1.000000  1.000000  0.000000
                       0.000000  0.000000  0.000000  0.000000  0.000000  0.000000
                       0.000000  0.000000
                       1.000000  1.000000  1.000000  1.000000  0.999993  0.000000
                       0.000000  0.000000  0.000000  0.000000  0.000000  0.000000
                       0.000000  0.000000
                       1.000000  1.000000  1.000000  1.000000  1.000000  0.000000
                       0.000000  0.000000  0.000000  0.000000  0.000000  0.000000
                       0.000000  0.000000
                       1.000000  1.000000  1.000000  1.000000  1.000000  0.000000
                       0.000000  0.000000  0.000000  0.000000  0.000000  0.000000
                       0.000000  0.000000
                       1.000000  1.000000  1.000000  1.000000  1.000000  1.000000
                       0.000000  0.000000  0.000000  0.000000  0.000000  0.000000
                       0.000000  0.000000
                       1.000000  1.000000  1.000000  1.000000  1.000000  0.000000
                       0.000000  0.000000  0.000000  0.000000  0.000000  0.000000
                       0.000000  0.000000
                       1.000000  1.000000  1.000000  1.000000  1.000000  0.000000
                       0.000000  0.000000  0.000000  0.000000  0.000000  0.000000
                       0.000000  0.000000
                       1.000000  1.000000  1.000000  1.000000  0.999998  0.000000
                       0.000000  0.000000  0.000000  0.000000  0.000000  0.000000
                       0.000000  0.000000
                       1.000000  1.000000  1.000000  1.000000  1.000000  0.000000
                       0.000000  0.000000  0.000000  0.000000  0.000000  0.000000
                       0.000000  0.000000
                       1.000000  1.000000  1.000000  1.000000  0.999981  0.000000
                       0.000000  0.000000  0.000000  0.000000  0.000000  0.000000
                       0.000000  0.000000
                       1.000000  1.000000  1.000000  1.000000  0.990852  0.000000
                       0.000000  0.000000  0.000000  0.000000  0.000000  0.000000
                       0.000000  0.000000
                       1.000000  1.000000  1.000000  1.000000  1.000000  1.000000
                       0.000000  0.000000  0.000000  0.000000  0.000000  0.000000
                       0.000000  0.000000
                       1.000000  1.000000  1.000000  1.000000  1.000000  1.000000
                       0.000000  0.000000  0.000000  0.000000  0.000000  0.000000
                       0.000000  0.000000
                       1.000000  1.000000  1.000000  1.000000  1.000000  0.000000
                       0.000000  0.000000  0.000000  0.000000  0.000000  0.000000
                       0.000000  0.000000
                       1.000000  1.000000  1.000000  1.000000  0.998352  0.937145
                       0.000000  0.000000  0.000000  0.000000  0.000000  0.000000
                       0.000000  0.000000
                       1.000000  1.000000  1.000000  1.000000  0.861492  0.374416
                       0.000000  0.000000  0.000000  0.000000  0.000000  0.000000
                       0.000000  0.000000
                       1.000000  1.000000  1.000000  1.000000  0.999985  0.999260
                       0.000000  0.000000  0.000000  0.000000  0.000000  0.000000
                       0.000000  0.000000
                       1.000000  1.000000  1.000000  1.000000  0.999980  0.094680
                       0.000000  0.000000  0.000000  0.000000  0.000000  0.000000
                       0.000000  0.000000
                       1.000000  1.000000  1.000000  0.999757  0.612677  0.000000
                       0.000000  0.000000  0.000000  0.000000  0.000000  0.000000
                       0.000000  0.000000
                       1.000000  1.000000  1.000000  1.000000  0.214959  0.000000
                       0.000000  0.000000  0.000000  0.000000  0.000000  0.000000
                       0.000000  0.000000
                       1.000000  1.000000  1.000000  1.000000  0.768442  0.000000
                       0.000000  0.000000  0.000000  0.000000  0.000000  0.000000
                       0.000000  0.000000
                       1.000000  1.000000  1.000000  0.999996  0.969643  0.000577
                       0.000000  0.000000  0.000000  0.000000  0.000000  0.000000
                       0.000000  0.000000
                       1.000000  1.000000  1.000000  0.999994  0.912046  0.000000
                       0.000000  0.000000  0.000000  0.000000  0.000000  0.000000
                       0.000000  0.000000
                       1.000000  1.000000  1.000000  1.000000  0.999625  0.000000
                       0.000000  0.000000  0.000000  0.000000  0.000000  0.000000
                       0.000000  0.000000
                       1.000000  1.000000  1.000000  1.000000  0.985848  0.000000
                       0.000000  0.000000  0.000000  0.000000  0.000000  0.000000
                       0.000000  0.000000
                       1.000000  1.000000  1.000000  1.000000  0.806604  0.000000
                       0.000000  0.000000  0.000000  0.000000  0.000000  0.000000
                       0.000000  0.000000
                       1.000000  1.000000  1.000000  1.000000  0.050053  0.000000
                       0.000000  0.000000  0.000000  0.000000  0.000000  0.000000
                       0.000000  0.000000
                       1.000000  1.000000  1.000000  1.000000  0.425880  0.000000
                       0.000000  0.000000  0.000000  0.000000  0.000000  0.000000
                       0.000000  0.000000
                       1.000000  1.000000  0.999884  0.822958  0.635256  0.000000
                       0.000000  0.000000  0.000000  0.000000  0.000000  0.000000
                       0.000000  0.000000
                       1.000000  1.000000  1.000000  0.931355  0.436831  0.000000
                       0.000000  0.000000  0.000000  0.000000  0.000000  0.000000
                       0.000000  0.000000
                       1.000000  1.000000  1.000000  0.999993  0.830967  0.000000
                       0.000000  0.000000  0.000000  0.000000  0.000000  0.000000
                       0.000000  0.000000
                       1.000000  1.000000  1.000000  1.000000  0.893754  0.000000
                       0.000000  0.000000  0.000000  0.000000  0.000000  0.000000
                       0.000000  0.000000
                       1.000000  1.000000  1.000000  1.000000  0.999900  0.946848
                       0.000000  0.000000  0.000000  0.000000  0.000000  0.000000
                       0.000000  0.000000
                       1.000000  1.000000  1.000000  1.000000  0.999899  0.000000
                       0.000000  0.000000  0.000000  0.000000  0.000000  0.000000
                       0.000000  0.000000
                       1.000000  1.000000  1.000000  1.000000  0.999979  0.000000
                       0.000000  0.000000  0.000000  0.000000  0.000000  0.000000
                       0.000000  0.000000
                       1.000000  1.000000  1.000000  0.997562  0.610949  0.000000
                       0.000000  0.000000  0.000000  0.000000  0.000000  0.000000
                       0.000000  0.000000
                       1.000000  1.000000  0.998359  0.884382  0.868317  0.000000
                       0.000000  0.000000  0.000000  0.000000  0.000000  0.000000
                       0.000000  0.000000
                       1.000000  1.000000  1.000000  0.973958  0.252317  0.000000
                       0.000000  0.000000  0.000000  0.000000  0.000000  0.000000
                       0.000000  0.000000
                       1.000000  1.000000  1.000000  0.999981  0.007711  0.000000
                       0.000000  0.000000  0.000000  0.000000  0.000000  0.000000
                       0.000000  0.000000
                       1.000000  1.000000  1.000000  1.000000  0.911865  0.911844
                       0.000000  0.000000  0.000000  0.000000  0.000000  0.000000
                       0.000000  0.000000
                       1.000000  1.000000  1.000000  1.000000  0.999430  0.999430
                       0.000000  0.000000  0.000000  0.000000  0.000000  0.000000
                       0.000000  0.000000
                       1.000000  1.000000  1.000000  0.790745  0.790687  0.000000
                       0.000000  0.000000  0.000000  0.000000  0.000000  0.000000
                       0.000000  0.000000
           occopt           7
        pawecutdg      4.00000000E+01 Hartree
           prtden           0
           prteig           0
            rprim      0.0000000000E+00  5.0000000000E-01  5.0000000000E-01
                       5.0000000000E-01  0.0000000000E+00  5.0000000000E-01
                       5.0000000000E-01  5.0000000000E-01  0.0000000000E+00
           shiftk      5.00000000E-01  5.00000000E-01  5.00000000E-01
          spgroup         225
           spinat      0.0000000000E+00  0.0000000000E+00  4.0000000000E+00
           strten1     1.9791987916E-02  1.9791987916E-02  1.9791987916E-02
                       0.0000000000E+00  0.0000000000E+00  0.0000000000E+00
           symrel      1  0  0   0  1  0   0  0  1      -1  0  0   0 -1  0   0  0 -1
                       0 -1  1   0 -1  0   1 -1  0       0  1 -1   0  1  0  -1  1  0
                      -1  0  0  -1  0  1  -1  1  0       1  0  0   1  0 -1   1 -1  0
                       0  1 -1   1  0 -1   0  0 -1       0 -1  1  -1  0  1   0  0  1
                      -1  0  0  -1  1  0  -1  0  1       1  0  0   1 -1  0   1  0 -1
                       0 -1  1   1 -1  0   0 -1  0       0  1 -1  -1  1  0   0  1  0
                       1  0  0   0  0  1   0  1  0      -1  0  0   0  0 -1   0 -1  0
                       0  1 -1   0  0 -1   1  0 -1       0 -1  1   0  0  1  -1  0  1
                      -1  0  1  -1  1  0  -1  0  0       1  0 -1   1 -1  0   1  0  0
                       0 -1  0   1 -1  0   0 -1  1       0  1  0  -1  1  0   0  1 -1
                       1  0 -1   0  0 -1   0  1 -1      -1  0  1   0  0  1   0 -1  1
                       0  1  0   0  0  1   1  0  0       0 -1  0   0  0 -1  -1  0  0
                       1  0 -1   0  1 -1   0  0 -1      -1  0  1   0 -1  1   0  0  1
                       0 -1  0   0 -1  1   1 -1  0       0  1  0   0  1 -1  -1  1  0
                      -1  0  1  -1  0  0  -1  1  0       1  0 -1   1  0  0   1 -1  0
                       0  1  0   1  0  0   0  0  1       0 -1  0  -1  0  0   0  0 -1
                       0  0 -1   0  1 -1   1  0 -1       0  0  1   0 -1  1  -1  0  1
                       1 -1  0   0 -1  1   0 -1  0      -1  1  0   0  1 -1   0  1  0
                       0  0  1   1  0  0   0  1  0       0  0 -1  -1  0  0   0 -1  0
                      -1  1  0  -1  0  0  -1  0  1       1 -1  0   1  0  0   1  0 -1
                       0  0  1   0  1  0   1  0  0       0  0 -1   0 -1  0  -1  0  0
                       1 -1  0   0 -1  0   0 -1  1      -1  1  0   0  1  0   0  1 -1
                       0  0 -1   1  0 -1   0  1 -1       0  0  1  -1  0  1   0 -1  1
                      -1  1  0  -1  0  1  -1  0  0       1 -1  0   1  0 -1   1  0  0
           tolrde      1.00000000E-04
           tolvrs      1.00000000E-09
           tsmear      7.50000000E-03 Hartree
            typat      1
           useylm           1
              wtk        0.02778    0.02778    0.02778    0.05556    0.02778    0.02778
                         0.05556    0.02778    0.05556    0.05556    0.02778    0.02778
                         0.02778    0.05556    0.02778    0.05556    0.05556    0.05556
                         0.02778    0.02778    0.02778    0.02778    0.02778    0.05556
                         0.05556    0.00926    0.00926    0.00926
            znucl       28.00000

================================================================================


- Timing analysis has been suppressed with timopt=0



================================================================================

 Suggested references for the acknowledgment of ABINIT usage.

 The users of ABINIT have little formal obligations with respect to the ABINIT group
 (those specified in the GNU General Public License, http://www.gnu.org/copyleft/gpl.txt).
 However, it is common practice in the scientific literature,
 to acknowledge the efforts of people that have made the research possible.
 In this spirit, please find below suggested citations of work written by ABINIT developers,
 corresponding to implementations inside of ABINIT that you have used in the present run.
 Note also that it will be of great value to readers of publications presenting these results,
 to read papers enabling them to understand the theoretical formalism and details
 of the ABINIT implementation.
 For information on why they are suggested, see also http://www.abinit.org/about/?text=acknowledgments.

 [1] Implementation of the Projector Augmented-Wave Method in the ABINIT code.
 M. Torrent, F. Jollet, F. Bottin, G. Zerah, and X. Gonze Comput. Mat. Science 42, 337, (2008).
 Comment : PAW calculations. Strong suggestion to cite this paper.

 [2] ABINIT : First-principles approach of materials and nanosystem properties.
 X. Gonze, B. Amadon, P.-M. Anglade, J.-M. Beuken, F. Bottin, P. Boulanger, F. Bruneval,
 D. Caliste, R. Caracas, M. Cote, T. Deutsch, L. Genovese, Ph. Ghosez, M. Giantomassi
 S. Goedecker, D.R. Hamann, P. Hermet, F. Jollet, G. Jomard, S. Leroux, M. Mancini, S. Mazevet,
 M.J.T. Oliveira, G. Onida, Y. Pouillon, T. Rangel, G.-M. Rignanese, D. Sangalli, R. Shaltaf,
 M. Torrent, M.J. Verstraete, G. Zerah, J.W. Zwanziger
 Computer Phys. Comm. 180, 2582-2615 (2009).
 Comment : the third generic paper describing the ABINIT project.
 Note that a version of this paper, that is not formatted for Computer Phys. Comm. 
 is available at http://www.abinit.org/about/ABINIT_CPC_v10.pdf .
 The licence allows the authors to put it on the Web.

 [3] A brief introduction to the ABINIT software package.
 X. Gonze, G.-M. Rignanese, M. Verstraete, J.-M. Beuken, Y. Pouillon, R. Caracas, F. Jollet,
 M. Torrent, G. Zerah, M. Mikami, Ph. Ghosez, M. Veithen, J.-Y. Raty, V. Olevano, F. Bruneval,
 L. Reining, R. Godby, G. Onida, D.R. Hamann, and D.C. Allan.
 Z. Kristallogr. 220, 558-562 (2005).
 Comment : the second generic paper describing the ABINIT project. Note that this paper
 should be cited especially if you are using the GW part of ABINIT, as several authors
 of this part are not in the list of authors of the first or third paper.
 The .pdf of the latter paper is available at http://www.abinit.org/about/zfk_0505-06_558-562.pdf.
 Note that it should not redistributed (Copyright by Oldenburg Wissenshaftverlag,
 the licence allows the authors to put it on the Web).


 And optionally :

 [4] First-principles computation of material properties : the ABINIT software project. 
 X. Gonze, J.-M. Beuken, R. Caracas, F. Detraux, M. Fuchs, G.-M. Rignanese, L. Sindic,
 M. Verstraete, G. Zerah, F. Jollet, M. Torrent, A. Roy, M. Mikami, Ph. Ghosez, J.-Y. Raty, D.C. Allan.
 Computational Materials Science 25, 478-492 (2002). http://dx.doi.org/10.1016/S0927-0256(02)00325-7
 Comment : the original paper describing the ABINIT project.

 [5] Fast radix 2, 3, 4 and 5 kernels for Fast Fourier Transformations
 on computers with overlapping multiply-add instructions.
 S. Goedecker, SIAM J. on Scientific Computing 18, 1605 (1997).
-
- Proc.   0 individual time (sec): cpu=          6.1  wall=          6.1

================================================================================

 Calculation completed.
.Delivered    2 WARNINGs and   2 COMMENTs to log file.
+Overall time at end (sec) : cpu=          6.1  wall=          6.1
