
.Version 6.10.2 of ABINIT 
.(MPI version, prepared for a x86_64_linux_gnu4.4 computer) 

.Copyright (C) 1998-2014 ABINIT group . 
 ABINIT comes with ABSOLUTELY NO WARRANTY.
 It is free software, and you are welcome to redistribute it
 under certain conditions (GNU General Public License,
 see ~abinit/COPYING or http://www.gnu.org/copyleft/gpl.txt).

 ABINIT is a project of the Universite Catholique de Louvain,
 Corning Inc. and other collaborators, see ~abinit/doc/developers/contributors.txt .
 Please read ~abinit/doc/users/acknowledgments.html for suggested
 acknowledgments of the ABINIT effort.
 For more information, see http://www.abinit.org .

.Starting date : Wed  9 Nov 2011.
- ( at 19h19 )
  
- input  file    -> ../tmbt_1.in
- output file    -> tmbt_1.outD
- root for input  files -> tmbt_1i
- root for output files -> tmbt_1o


 DATASET    1 : space group P3_2 2 1 (#154); Bravais hP (primitive hexag.)
================================================================================
 Values of the parameters that define the memory need for DATASET  1.
   intxc =         0  ionmov =         0    iscf =         7 xclevel =         1
  lmnmax =         2   lnmax =         2   mband =        28  mffmem =         1
P  mgfft =        48   mkmem =         3 mpssoang=         3     mpw =      4304
  mqgrid =      3001   natom =         9    nfft =     97200    nkpt =         9
  nloalg =         4  nspden =         1 nspinor =         1  nsppol =         1
    nsym =         6  n1xccc =      2501  ntypat =         2  occopt =         1
================================================================================
P This job should need less than                      34.797 Mbytes of memory.
  Rough estimation (10% accuracy) of disk space for files :
  WF disk file :     16.552 Mbytes ; DEN or POT disk file :      0.744 Mbytes.
================================================================================


 DATASET    2 : space group P3_2 2 1 (#154); Bravais hP (primitive hexag.)
================================================================================
 Values of the parameters that define the memory need for DATASET  2.
   intxc =         0  ionmov =         0    iscf =        -2 xclevel =         1
  lmnmax =         2   lnmax =         2   mband =       160  mffmem =         1
P  mgfft =        48   mkmem =         3 mpssoang=         3     mpw =      4304
  mqgrid =      3001   natom =         9    nfft =     97200    nkpt =         9
  nloalg =         4  nspden =         1 nspinor =         1  nsppol =         1
    nsym =         6  n1xccc =      2501  ntypat =         2  occopt =         1
================================================================================
P This job should need less than                      49.920 Mbytes of memory.
  Rough estimation (10% accuracy) of disk space for files :
  WF disk file :     94.572 Mbytes ; DEN or POT disk file :      0.744 Mbytes.
================================================================================

--------------------------------------------------------------------------------
------------- Echo of variables that govern the present computation ------------
--------------------------------------------------------------------------------
-
- outvars: echo of selected default values                                      
-   accesswff0 =  0 , fftalg0 =112 , wfoptalg0 =  0
-
- outvars: echo of global parameters not present in the input file              
-   nproc =    3
-
 -outvars: echo values of preprocessed input variables --------
            acell      9.2843000799E+00  9.2843000799E+00  1.0213270550E+01 Bohr
              amu      2.80855000E+01  1.59994000E+01
           diemac      4.00000000E+00
             ecut      2.40000000E+01 Hartree
           getden1          0
           getden2         -1
             iscf1          7
             iscf2         -2
           istwfk        1    0    1    0    0    0    0    0    0
           jdtset        1    2
              kpt      0.00000000E+00  0.00000000E+00  0.00000000E+00
                       2.50000000E-01  0.00000000E+00  0.00000000E+00
                       5.00000000E-01  0.00000000E+00  0.00000000E+00
                       2.50000000E-01  2.50000000E-01  0.00000000E+00
                       0.00000000E+00  0.00000000E+00  3.33333333E-01
                       2.50000000E-01  0.00000000E+00  3.33333333E-01
                       5.00000000E-01  0.00000000E+00  3.33333333E-01
                      -2.50000000E-01  0.00000000E+00  3.33333333E-01
                       2.50000000E-01  2.50000000E-01  3.33333333E-01
          kptrlen      3.06398116E+01
         kptrlatt      4  0  0   0  4  0   0  0  3
          kssform1          1
          kssform2          3
P           mkmem           3
            natom           9
            nband1         28
            nband2        160
           nbdbuf1          0
           nbdbuf2         10
           ndtset           2
            ngfft          45      45      48
             nkpt           9
            nstep         200
             nsym           6
           ntypat           2
              occ      2.000000  2.000000  2.000000  2.000000  2.000000  2.000000
                       2.000000  2.000000  2.000000  2.000000  2.000000  2.000000
                       2.000000  2.000000  2.000000  2.000000  2.000000  2.000000
                       2.000000  2.000000  2.000000  2.000000  2.000000  2.000000
                       0.000000  0.000000  0.000000  0.000000
            rprim      5.0000000000E-01 -8.6602540378E-01  0.0000000000E+00
                       5.0000000000E-01  8.6602540378E-01  0.0000000000E+00
                       0.0000000000E+00  0.0000000000E+00  1.0000000000E+00
          spgroup         154
           symrel      1  0  0   0  1  0   0  0  1       1  0  0  -1 -1  0   0  0 -1
                       0  1  0  -1 -1  0   0  0  1       0  1  0   1  0  0   0  0 -1
                      -1 -1  0   1  0  0   0  0  1      -1 -1  0   0  1  0   0  0 -1
            tnons      0.0000000  0.0000000  0.0000000     0.0000000  0.0000000  0.0000000
                       0.0000000  0.0000000 -0.3333333     0.0000000  0.0000000 -0.3333333
                       0.0000000  0.0000000  0.3333333     0.0000000  0.0000000  0.3333333
           tolvrs1     1.00000000E-08
           tolvrs2     0.00000000E+00
           tolwfr1     0.00000000E+00
           tolwfr2     1.00000000E-12
            typat      1  1  1  2  2  2  2  2  2
              wtk        0.02083    0.12500    0.06250    0.12500    0.04167    0.12500
                         0.12500    0.12500    0.25000
           xangst      1.1422818000E+00 -1.9784901142E+00  0.0000000000E+00
                       1.1422818000E+00  1.9784901142E+00  3.6030866667E+00
                      -2.2845636000E+00  0.0000000000E+00  1.8015433333E+00
                       1.6876292400E+00 -6.0843889532E-01  6.4855560000E-01
                      -1.3707381600E+00 -1.1573103463E+00  2.4500989333E+00
                      -3.1689108000E-01  1.7657492417E+00  4.2516422667E+00
                      -3.1689108000E-01 -1.7657492417E+00 -6.4855560000E-01
                       1.6876292400E+00  6.0843889532E-01  2.9545310667E+00
                      -1.3707381600E+00  1.1573103463E+00  1.1529877333E+00
            xcart      2.1585997686E+00 -3.7388044724E+00  0.0000000000E+00
                       2.1585997686E+00  3.7388044724E+00  6.8088470331E+00
                      -4.3171995372E+00  0.0000000000E+00  3.4044235165E+00
                       3.1891570774E+00 -1.1497828807E+00  1.2255924659E+00
                      -2.5903197223E+00 -2.1869996053E+00  4.6300159825E+00
                      -5.9883735515E-01  3.3367824861E+00  8.0344394990E+00
                      -5.9883735515E-01 -3.3367824861E+00 -1.2255924659E+00
                       3.1891570774E+00  1.1497828807E+00  5.5832545671E+00
                      -2.5903197223E+00  2.1869996053E+00  2.1788310506E+00
             xred      4.6500000000E-01  0.0000000000E+00  0.0000000000E+00
                       0.0000000000E+00  4.6500000000E-01  6.6666666667E-01
                      -4.6500000000E-01 -4.6500000000E-01  3.3333333333E-01
                       4.1500000000E-01  2.7200000000E-01  1.2000000000E-01
                      -1.4300000000E-01 -4.1500000000E-01  4.5333333333E-01
                      -2.7200000000E-01  1.4300000000E-01  7.8666666667E-01
                       1.4300000000E-01 -2.7200000000E-01 -1.2000000000E-01
                       2.7200000000E-01  4.1500000000E-01  5.4666666667E-01
                      -4.1500000000E-01 -1.4300000000E-01  2.1333333333E-01
            znucl       14.00000    8.00000

================================================================================

 chkinp: Checking input parameters for consistency, jdtset=   1.

 chkinp: Checking input parameters for consistency, jdtset=   2.

================================================================================
== DATASET  1 ==================================================================

 Exchange-correlation functional for the present dataset will be:
  LDA: new Teter (4/93) with spin-polarized option - ixc=1
 Citation for XC functional:
  S. Goedecker, M. Teter, J. Huetter, PRB 54, 1703 (1996)

 Real(R)+Recip(G) space primitive vectors, cartesian coordinates (Bohr,Bohr^-1):
 R(1)=  4.6421500 -8.0404397  0.0000000  G(1)=  0.1077087 -0.0621857  0.0000000
 R(2)=  4.6421500  8.0404397  0.0000000  G(2)=  0.1077087  0.0621857  0.0000000
 R(3)=  0.0000000  0.0000000 10.2132705  G(3)=  0.0000000  0.0000000  0.0979118
 Unit cell volume ucvol=  7.6241917E+02 bohr^3
 Angles (23,13,12)=  9.00000000E+01  9.00000000E+01  1.20000000E+02 degrees

 getcut: wavevector=  0.0000  0.0000  0.0000  ngfft=  45  45  48
         ecut(hartree)=     24.000   => boxcut(ratio)=   2.13111

--- Pseudopotential description ------------------------------------------------
- pspini: atom type   1  psp file is ../../../Psps_for_tests/14si.pspnc
- pspatm: opening atomic psp file    ../../../Psps_for_tests/14si.pspnc
-  Troullier-Martins psp for element  Si        Thu Oct 27 17:31:21 EDT 1994
- 14.00000   4.00000    940714                znucl, zion, pspdat
    1    1    2    2      2001   0.00000      pspcod,pspxc,lmax,lloc,mmax,r2well
    0   5.907  14.692    1   2.0872718        l,e99.0,e99.9,nproj,rcpsp
   0.00000000   0.00000000   0.00000000   0.00000000     rms, ekb1, ekb2, epsatm
    1   2.617   4.181    1   2.0872718        l,e99.0,e99.9,nproj,rcpsp
   0.00000000   0.00000000   0.00000000   0.00000000     rms, ekb1, ekb2, epsatm
    2   0.000   0.000    0   2.0872718        l,e99.0,e99.9,nproj,rcpsp
   0.00000000   0.00000000   0.00000000   0.00000000     rms, ekb1, ekb2, epsatm
    1.80626423934776    0.22824404341771    1.17378968127746   rchrg,fchrg,qchrg
 pspatm: epsatm=    1.43386982
         --- l  ekb(1:nproj) -->
             0    3.287949
             1    1.849886
 pspatm: atomic psp has been read  and splines computed

- pspini: atom type   2  psp file is ../../../Psps_for_tests/8o.pspnc
- pspatm: opening atomic psp file    ../../../Psps_for_tests/8o.pspnc
-  Troullier-Martins psp for element  O         Thu Oct 27 17:29:57 EDT 1994
-  8.00000   6.00000    940714                znucl, zion, pspdat
    1    1    1    1      2001   0.00000      pspcod,pspxc,lmax,lloc,mmax,r2well
    0   5.480  16.893    1   1.4482335        l,e99.0,e99.9,nproj,rcpsp
   0.00000000   0.00000000   0.00000000   0.00000000     rms, ekb1, ekb2, epsatm
    1  20.911  28.075    0   1.4482335        l,e99.0,e99.9,nproj,rcpsp
   0.00000000   0.00000000   0.00000000   0.00000000     rms, ekb1, ekb2, epsatm
    0.56990156784787    3.95561236318184    0.63894027514378   rchrg,fchrg,qchrg
 pspatm: epsatm=    1.57752239
         --- l  ekb(1:nproj) -->
             0    5.670783
 pspatm: atomic psp has been read  and splines computed

   6.60803703E+02                                ecore*ucvol(ha*bohr**3)
--------------------------------------------------------------------------------

P newkpt: treating     28 bands with npw=    4301 for ikpt=   1 by node    0
P newkpt: treating     28 bands with npw=    4278 for ikpt=   2 by node    0
P newkpt: treating     28 bands with npw=    4304 for ikpt=   3 by node    0
P newkpt: treating     28 bands with npw=    4262 for ikpt=   4 by node    1
P newkpt: treating     28 bands with npw=    4252 for ikpt=   5 by node    1
P newkpt: treating     28 bands with npw=    4279 for ikpt=   6 by node    1
P newkpt: treating     28 bands with npw=    4286 for ikpt=   7 by node    2
P newkpt: treating     28 bands with npw=    4279 for ikpt=   8 by node    2
P newkpt: treating     28 bands with npw=    4285 for ikpt=   9 by node    2

 setup2: Arith. and geom. avg. npw (full set) are    4280.021    4280.006

================================================================================

     iter   Etot(hartree)      deltaE(h)  residm     vres2
 ETOT  1  -113.02186291663    -1.130E+02 7.506E-02 1.241E+02
 ETOT  2  -113.08623333931    -6.437E-02 2.139E-03 1.371E+02
 ETOT  3  -113.17525116659    -8.902E-02 9.905E-04 8.062E-01
 ETOT  4  -113.17576446948    -5.133E-04 3.316E-04 9.215E-03
 ETOT  5  -113.17576736623    -2.897E-06 9.888E-05 4.486E-04
 ETOT  6  -113.17576756024    -1.940E-07 1.093E-04 7.606E-06
 ETOT  7  -113.17576756299    -2.740E-09 4.432E-05 1.538E-07
 ETOT  8  -113.17576756300    -1.944E-11 5.476E-05 2.273E-09

 At SCF step    8       vres2   =  2.27E-09 < tolvrs=  1.00E-08 =>converged.

 Cartesian components of stress tensor (hartree/bohr^3)
  sigma(1 1)=  1.26669013E-03  sigma(3 2)=  0.00000000E+00
  sigma(2 2)=  1.26669013E-03  sigma(3 1)=  0.00000000E+00
  sigma(3 3)=  1.21849340E-03  sigma(2 1)=  0.00000000E+00

================================================================================

 ----iterations are completed or convergence reached----

 Mean square residual over all n,k,spin=   3.8205E-07; max=  5.4763E-05
   0.0000  0.0000  0.0000    1  2.70905E-07 kpt; spin; max resid(k); each band:
  2.87E-13 3.03E-13 3.03E-13 2.53E-13 2.75E-13 2.52E-13 4.45E-14 4.46E-14
  1.13E-13 7.33E-15 1.72E-14 1.72E-14 1.68E-13 1.72E-13 1.40E-13 1.17E-13
  9.02E-14 8.77E-14 5.56E-14 2.46E-13 2.53E-13 2.28E-13 7.88E-14 7.39E-14
  1.01E-13 6.48E-12 2.71E-07 1.52E-08
   0.2500  0.0000  0.0000    1  1.17789E-06 kpt; spin; max resid(k); each band:
  2.87E-13 2.77E-13 2.88E-13 2.72E-13 2.90E-13 2.52E-13 4.16E-14 4.35E-14
  3.17E-14 7.99E-14 2.31E-14 3.96E-14 1.55E-13 1.38E-13 1.59E-13 1.50E-13
  1.41E-13 1.19E-13 8.32E-14 2.07E-13 1.99E-13 1.87E-13 1.10E-13 9.62E-14
  1.78E-13 1.96E-08 1.71E-08 1.18E-06
   0.5000  0.0000  0.0000    1  3.94669E-08 kpt; spin; max resid(k); each band:
  2.79E-13 2.68E-13 2.84E-13 2.88E-13 3.04E-13 2.60E-13 3.99E-14 4.36E-14
  3.96E-14 8.01E-14 2.30E-14 3.38E-14 1.77E-13 1.54E-13 6.05E-14 2.01E-13
  1.99E-13 1.28E-13 1.62E-13 1.62E-13 1.49E-13 1.16E-13 1.32E-13 1.06E-13
  1.19E-12 1.15E-09 3.95E-08 3.68E-08
   0.2500  0.2500  0.0000    1  3.47047E-05 kpt; spin; max resid(k); each band:
  2.78E-13 2.66E-13 2.78E-13 2.94E-13 2.84E-13 2.78E-13 4.00E-14 4.22E-14
  3.49E-14 7.45E-14 4.74E-14 2.17E-14 1.60E-13 1.13E-13 1.28E-13 1.90E-13
  1.77E-13 1.85E-13 2.06E-13 8.35E-14 1.34E-13 1.49E-13 1.28E-13 1.05E-13
  3.11E-11 2.66E-07 1.97E-07 3.47E-05
   0.0000  0.0000  0.3333    1  1.09742E-08 kpt; spin; max resid(k); each band:
  2.91E-13 2.97E-13 2.85E-13 2.57E-13 2.72E-13 2.57E-13 2.44E-14 6.98E-14
  9.67E-14 2.37E-14 1.14E-14 5.62E-15 1.71E-13 9.64E-14 1.54E-13 1.68E-13
  1.88E-14 4.40E-14 1.99E-13 1.50E-13 3.04E-13 2.19E-13 4.05E-14 1.80E-13
  1.40E-13 6.91E-11 1.62E-10 1.10E-08
   0.2500  0.0000  0.3333    1  7.74455E-09 kpt; spin; max resid(k); each band:
  2.89E-13 2.88E-13 2.68E-13 2.68E-13 2.77E-13 2.62E-13 3.04E-14 5.69E-14
  5.98E-14 3.14E-14 3.85E-14 3.29E-14 1.58E-13 1.59E-13 7.55E-14 1.54E-13
  1.29E-13 9.03E-14 1.94E-13 1.23E-13 2.69E-13 1.80E-13 5.39E-14 1.69E-13
  6.36E-13 3.34E-09 1.16E-10 7.74E-09
   0.5000  0.0000  0.3333    1  3.05548E-06 kpt; spin; max resid(k); each band:
  2.80E-13 2.75E-13 2.74E-13 2.86E-13 2.87E-13 2.64E-13 3.86E-14 4.40E-14
  4.75E-14 2.36E-14 7.94E-14 3.08E-14 1.54E-13 1.39E-13 1.67E-13 1.20E-13
  1.11E-13 1.91E-13 1.39E-13 1.43E-13 2.15E-13 1.03E-13 1.56E-13 1.03E-13
  1.41E-10 1.35E-09 4.87E-09 3.06E-06
  -0.2500  0.0000  0.3333    1  8.10979E-07 kpt; spin; max resid(k); each band:
  2.89E-13 2.88E-13 2.66E-13 2.81E-13 2.71E-13 2.63E-13 3.05E-14 5.75E-14
  5.81E-14 2.33E-14 5.83E-14 2.55E-14 1.45E-13 1.43E-13 1.13E-13 1.50E-13
  1.09E-13 1.23E-13 1.19E-13 1.75E-13 2.45E-13 1.93E-13 1.03E-13 1.22E-13
  2.33E-13 7.44E-08 4.16E-08 8.11E-07
   0.2500  0.2500  0.3333    1  5.47628E-05 kpt; spin; max resid(k); each band:
  2.83E-13 2.79E-13 2.68E-13 2.65E-13 2.81E-13 2.76E-13 3.77E-14 4.58E-14
  4.46E-14 3.73E-14 7.67E-14 2.75E-14 1.24E-13 1.66E-13 1.49E-13 1.40E-13
  1.16E-13 1.40E-13 1.76E-13 1.90E-13 1.89E-13 1.56E-13 1.04E-13 1.12E-13
  1.32E-10 3.92E-08 7.16E-07 5.48E-05
 reduced coordinates (array xred) for    9 atoms
       0.465000000000      0.000000000000      0.000000000000
       0.000000000000      0.465000000000      0.666666666667
      -0.465000000000     -0.465000000000      0.333333333333
       0.415000000000      0.272000000000      0.120000000000
      -0.143000000000     -0.415000000000      0.453333333333
      -0.272000000000      0.143000000000      0.786666666667
       0.143000000000     -0.272000000000     -0.120000000000
       0.272000000000      0.415000000000      0.546666666667
      -0.415000000000     -0.143000000000      0.213333333333
 rms dE/dt=  4.8778E-02; max dE/dt=  8.3758E-02; dE/dt below (all hartree)
    1       0.014889857089     -0.007444928544     -0.000000000000
    2      -0.007444928544      0.014889857089      0.000000000000
    3      -0.007444928544     -0.007444928544      0.000000000000
    4       0.024268595685      0.035231971941      0.083758287215
    5       0.035231971941     -0.059500567626      0.083758287215
    6      -0.059500567626      0.024268595685      0.083758287215
    7       0.024268595685     -0.059500567626     -0.083758287215
    8       0.035231971941      0.024268595685     -0.083758287215
    9      -0.059500567626      0.035231971941     -0.083758287215

 cartesian coordinates (angstrom) at end:
    1      1.14228180000000    -1.97849011415109     0.00000000000000
    2      1.14228180000000     1.97849011415109     3.60308666666667
    3     -2.28456360000000     0.00000000000000     1.80154333333333
    4      1.68762924000000    -0.60843889531958     0.64855560000000
    5     -1.37073816000000    -1.15731034634214     2.45009893333333
    6     -0.31689108000000     1.76574924166173     4.25164226666667
    7     -0.31689108000000    -1.76574924166173    -0.64855560000000
    8      1.68762924000000     0.60843889531958     2.95453106666667
    9     -1.37073816000000     1.15731034634214     1.15298773333333

 cartesian forces (hartree/bohr) at end:
    1     -0.00080188366169     0.00138890324382    -0.00000000000000
    2     -0.00080188366169    -0.00138890324382    -0.00000000000000
    3      0.00160376732339    -0.00000000000000    -0.00000000000000
    4     -0.00640872948034    -0.00068176471871    -0.00820092709859
    5      0.00261393917437     0.00589100489534    -0.00820092709859
    6      0.00379479030597    -0.00520924017663    -0.00820092709859
    7      0.00379479030597     0.00520924017663     0.00820092709859
    8     -0.00640872948034     0.00068176471871     0.00820092709859
    9      0.00261393917437    -0.00589100489534     0.00820092709859
 frms,max,avg= 4.9458817E-03 8.2009271E-03   0.000E+00  0.000E+00  0.000E+00 h/b

 cartesian forces (eV/Angstrom) at end:
    1     -0.04123451232448     0.07142027037170    -0.00000000000000
    2     -0.04123451232448    -0.07142027037170    -0.00000000000000
    3      0.08246902464897    -0.00000000000000    -0.00000000000000
    4     -0.32955009232008    -0.03505774844762    -0.42170859149874
    5      0.13441414540507     0.30292762599397    -0.42170859149874
    6      0.19513594691501    -0.26786987754635    -0.42170859149874
    7      0.19513594691501     0.26786987754635     0.42170859149874
    8     -0.32955009232008     0.03505774844762     0.42170859149874
    9      0.13441414540507    -0.30292762599397     0.42170859149874
 frms,max,avg= 2.5432744E-01 4.2170859E-01   0.000E+00  0.000E+00  0.000E+00 e/A
 length scales=  9.284300079912  9.284300079912 10.213270549578 bohr
              =  4.913040000000  4.913040000000  5.404630000000 angstroms
 prteigrs : about to open file tmbt_1o_DS1_EIG
 Fermi (or HOMO) energy (hartree) =   0.06558   Average Vxc (hartree)=  -0.36154
 Eigenvalues (hartree) for nkpt=   9  k points:
 kpt#   1, nband= 28, wtk=  0.02083, kpt=  0.0000  0.0000  0.0000 (reduced coord)
  -0.64360  -0.58541  -0.58541  -0.56039  -0.55891  -0.55891  -0.23954  -0.23954
  -0.13723  -0.13444  -0.12870  -0.12870  -0.04451  -0.04451  -0.03361  -0.02732
   0.00875   0.00875   0.01249   0.02885   0.02885   0.04017   0.05579   0.05579
   0.27554   0.39764   0.39764   0.41311
 kpt#   2, nband= 28, wtk=  0.12500, kpt=  0.2500  0.0000  0.0000 (reduced coord)
  -0.63684  -0.59318  -0.58435  -0.56220  -0.56025  -0.55935  -0.24215  -0.22531
  -0.13945  -0.13799  -0.13358  -0.11795  -0.05172  -0.03988  -0.03211  -0.01644
  -0.01049   0.00689   0.01004   0.02545   0.02951   0.03462   0.05805   0.06136
   0.30870   0.39781   0.39942   0.41637
 kpt#   3, nband= 28, wtk=  0.06250, kpt=  0.5000  0.0000  0.0000 (reduced coord)
  -0.62499  -0.60679  -0.58319  -0.56306  -0.56144  -0.56014  -0.24465  -0.20732
  -0.15235  -0.13624  -0.13608  -0.10643  -0.05003  -0.04290  -0.03562  -0.02012
  -0.01174  -0.00005   0.00548   0.02431   0.02654   0.03747   0.05588   0.06531
   0.36048   0.38630   0.41225   0.41306
 kpt#   4, nband= 28, wtk=  0.12500, kpt=  0.2500  0.2500  0.0000 (reduced coord)
  -0.62533  -0.60579  -0.58419  -0.56293  -0.56123  -0.56012  -0.24565  -0.20219
  -0.16250  -0.13535  -0.13048  -0.10619  -0.04873  -0.04234  -0.03692  -0.01533
  -0.01334   0.00026   0.01028   0.01507   0.02585   0.04275   0.05555   0.06558
   0.35509   0.40192   0.40276   0.42998
 kpt#   5, nband= 28, wtk=  0.04167, kpt=  0.0000  0.0000  0.3333 (reduced coord)
  -0.63546  -0.61352  -0.56424  -0.56025  -0.55979  -0.55802  -0.27476  -0.18906
  -0.15080  -0.14069  -0.13886  -0.11122  -0.04470  -0.03376  -0.03055  -0.01517
  -0.00381   0.00095   0.00664   0.00892   0.02407   0.05038   0.06075   0.06415
   0.31274   0.37703   0.39304   0.39937
 kpt#   6, nband= 28, wtk=  0.12500, kpt=  0.2500  0.0000  0.3333 (reduced coord)
  -0.62991  -0.61105  -0.57304  -0.56200  -0.56103  -0.55896  -0.26026  -0.19412
  -0.16107  -0.13608  -0.12816  -0.11602  -0.05238  -0.03866  -0.03018  -0.01869
  -0.00760   0.00549   0.00987   0.01783   0.02952   0.04204   0.05660   0.06041
   0.33766   0.38675   0.39663   0.40658
 kpt#   7, nband= 28, wtk=  0.12500, kpt=  0.5000  0.0000  0.3333 (reduced coord)
  -0.62295  -0.60577  -0.58716  -0.56352  -0.56133  -0.55974  -0.24064  -0.20377
  -0.16750  -0.13431  -0.12161  -0.11697  -0.05329  -0.05176  -0.02672  -0.01877
  -0.00744   0.00413   0.01556   0.02348   0.02879   0.04150   0.04460   0.06095
   0.37668   0.39215   0.40764   0.42349
 kpt#   8, nband= 28, wtk=  0.12500, kpt= -0.2500  0.0000  0.3333 (reduced coord)
  -0.63002  -0.61073  -0.57384  -0.56194  -0.56014  -0.55930  -0.26028  -0.19430
  -0.16094  -0.13663  -0.12859  -0.11430  -0.05217  -0.03790  -0.02989  -0.02186
  -0.01041   0.00829   0.01327   0.01652   0.03056   0.03977   0.05303   0.06441
   0.33584   0.39385   0.39892   0.40981
 kpt#   9, nband= 28, wtk=  0.25000, kpt=  0.2500  0.2500  0.3333 (reduced coord)
  -0.62280  -0.60650  -0.58611  -0.56320  -0.56181  -0.56009  -0.24048  -0.20127
  -0.17209  -0.13268  -0.12217  -0.11703  -0.05481  -0.04544  -0.03238  -0.01649
  -0.00642   0.00065   0.01737   0.02400   0.03181   0.03769   0.04912   0.05683
   0.37117   0.40018   0.40854   0.42620
 Total charge density [el/Bohr^3]
,     Maximum=    9.6995E-01  at reduced coord.    0.1111    0.6889    0.9167
,Next maximum=    9.6995E-01  at reduced coord.    0.6889    0.1111    0.7500
,     Minimum=    1.2608E-03  at reduced coord.    0.0000    0.3111    0.1667
,Next minimum=    1.2608E-03  at reduced coord.    0.3111    0.0000    0.5000
,  Integrated=    4.8000E+01

--------------------------------------------------------------------------------
 Components of total free energy (in Hartree) :

    Kinetic energy  =  7.31923793592931E+01
    Hartree energy  =  3.82553541796359E+01
    XC energy       = -3.11399241408573E+01
    Ewald energy    = -6.95068319280861E+01
    PspCore energy  =  8.66719688288466E-01
    Loc. psp. energy= -1.39049420368499E+02
    NL   psp  energy=  1.42059556472202E+01
    >>>>>>>>> Etotal= -1.13175767563004E+02

 Other information on the energy :
    Total energy(eV)= -3.07966925480705E+03 ; Band energy (Ha)=  -8.8417667586E+00
--------------------------------------------------------------------------------

 Cartesian components of stress tensor (hartree/bohr^3)
  sigma(1 1)=  1.26669013E-03  sigma(3 2)=  0.00000000E+00
  sigma(2 2)=  1.26669013E-03  sigma(3 1)=  0.00000000E+00
  sigma(3 3)=  1.21849340E-03  sigma(2 1)=  0.00000000E+00

-Cartesian components of stress tensor (GPa)         [Pressure= -3.6795E+01 GPa]
- sigma(1 1)=  3.72673040E+01  sigma(3 2)=  0.00000000E+00
- sigma(2 2)=  3.72673040E+01  sigma(3 1)=  0.00000000E+00
- sigma(3 3)=  3.58493074E+01  sigma(2 1)=  0.00000000E+00

================================================================================
== DATASET  2 ==================================================================

 mkfilename : getden/=0, take file _DEN from output of DATASET   1.

 Exchange-correlation functional for the present dataset will be:
  LDA: new Teter (4/93) with spin-polarized option - ixc=1
 Citation for XC functional:
  S. Goedecker, M. Teter, J. Huetter, PRB 54, 1703 (1996)

 Real(R)+Recip(G) space primitive vectors, cartesian coordinates (Bohr,Bohr^-1):
 R(1)=  4.6421500 -8.0404397  0.0000000  G(1)=  0.1077087 -0.0621857  0.0000000
 R(2)=  4.6421500  8.0404397  0.0000000  G(2)=  0.1077087  0.0621857  0.0000000
 R(3)=  0.0000000  0.0000000 10.2132705  G(3)=  0.0000000  0.0000000  0.0979118
 Unit cell volume ucvol=  7.6241917E+02 bohr^3
 Angles (23,13,12)=  9.00000000E+01  9.00000000E+01  1.20000000E+02 degrees

 getcut: wavevector=  0.0000  0.0000  0.0000  ngfft=  45  45  48
         ecut(hartree)=     24.000   => boxcut(ratio)=   2.13111
--------------------------------------------------------------------------------

P newkpt: treating    160 bands with npw=    4301 for ikpt=   1 by node    0
P newkpt: treating    160 bands with npw=    4278 for ikpt=   2 by node    0
P newkpt: treating    160 bands with npw=    4304 for ikpt=   3 by node    0
P newkpt: treating    160 bands with npw=    4262 for ikpt=   4 by node    1
P newkpt: treating    160 bands with npw=    4252 for ikpt=   5 by node    1
P newkpt: treating    160 bands with npw=    4279 for ikpt=   6 by node    1
P newkpt: treating    160 bands with npw=    4286 for ikpt=   7 by node    2
P newkpt: treating    160 bands with npw=    4279 for ikpt=   8 by node    2
P newkpt: treating    160 bands with npw=    4285 for ikpt=   9 by node    2


================================================================================
 prteigrs : about to open file tmbt_1o_DS2_EIG
 Non-SCF case, kpt    1 (  0.00000  0.00000  0.00000), residuals and eigenvalues=
  9.95E-14  1.41E-13  3.24E-13  6.33E-13  2.49E-13  3.28E-13  5.22E-13  8.69E-14
  6.71E-14  6.30E-14  6.33E-13  1.38E-13  7.58E-13  9.02E-13  8.08E-13  4.92E-14
  6.84E-13  8.63E-13  6.08E-13  3.84E-13  7.18E-13  6.47E-13  5.56E-13  6.88E-13
  7.47E-13  1.70E-13  1.50E-13  1.45E-13  1.89E-13  8.22E-14  3.20E-13  2.17E-13
  1.59E-13  2.16E-13  1.79E-13  1.65E-13  3.51E-13  1.90E-13  1.88E-13  7.83E-14
  8.31E-14  1.53E-13  1.14E-13  1.72E-13  1.59E-13  1.19E-13  1.98E-13  2.21E-13
  2.07E-13  9.30E-13  1.21E-13  1.21E-13  1.85E-13  1.38E-13  1.08E-13  2.12E-13
  1.53E-13  1.34E-13  5.98E-14  2.67E-13  4.28E-13  1.08E-13  2.58E-13  5.32E-13
  2.68E-13  1.63E-13  4.38E-13  2.30E-13  5.43E-13  1.45E-13  3.03E-13  1.63E-13
  4.95E-13  4.46E-13  2.96E-13  3.74E-13  1.62E-13  4.00E-13  4.87E-13  6.78E-13
  4.18E-14  5.95E-14  6.21E-14  5.32E-14  8.12E-14  6.71E-14  8.78E-13  1.28E-13
  1.11E-13  1.97E-13  1.17E-13  1.37E-13  8.97E-14  4.26E-13  5.14E-13  1.85E-13
  3.59E-13  2.54E-13  3.91E-13  3.90E-13  3.24E-13  1.98E-13  1.66E-13  6.57E-13
  2.73E-13  5.91E-13  4.04E-13  1.27E-13  6.35E-13  2.91E-13  1.74E-13  2.79E-13
  3.22E-13  2.11E-13  8.76E-13  7.58E-13  2.03E-13  5.89E-13  4.86E-13  6.74E-13
  2.72E-13  6.84E-13  5.92E-13  6.59E-13  5.29E-13  3.73E-13  6.93E-13  6.39E-13
  9.33E-13  6.72E-13  5.52E-13  7.17E-13  8.92E-13  6.03E-13  9.19E-13  4.64E-13
  3.66E-13  7.76E-13  3.40E-13  4.73E-13  4.84E-13  8.18E-13  2.76E-13  5.23E-13
  4.40E-13  5.59E-13  9.85E-13  5.77E-13  6.15E-13  7.28E-13  3.12E-12  2.36E-11
  1.62E-12  3.45E-11  6.28E-08  1.45E-09  3.67E-07  2.40E-05  5.34E-07  5.89E-05
 -6.4360E-01 -5.8541E-01 -5.8541E-01 -5.6039E-01 -5.5891E-01 -5.5891E-01
 -2.3954E-01 -2.3954E-01 -1.3723E-01 -1.3444E-01 -1.2870E-01 -1.2870E-01
 -4.4512E-02 -4.4512E-02 -3.3612E-02 -2.7316E-02  8.7488E-03  8.7488E-03
  1.2489E-02  2.8848E-02  2.8848E-02  4.0166E-02  5.5786E-02  5.5786E-02
  2.7554E-01  3.9764E-01  3.9764E-01  4.1311E-01  4.1311E-01  4.4668E-01
  4.9057E-01  5.0190E-01  5.2070E-01  5.2070E-01  5.4673E-01  5.4673E-01
  5.7777E-01  6.0292E-01  6.0292E-01  6.0538E-01  6.1085E-01  6.1085E-01
  6.6116E-01  6.6116E-01  7.1168E-01  7.4305E-01  7.4305E-01  7.9153E-01
  7.9153E-01  8.1466E-01  8.2527E-01  8.2527E-01  8.7314E-01  9.2628E-01
  9.2628E-01  9.3127E-01  9.5430E-01  9.5430E-01  9.6655E-01  9.9790E-01
  1.0277E+00  1.0277E+00  1.0537E+00  1.0553E+00  1.0553E+00  1.0662E+00
  1.0941E+00  1.0941E+00  1.1203E+00  1.1513E+00  1.1642E+00  1.1642E+00
  1.2038E+00  1.2038E+00  1.2226E+00  1.2226E+00  1.2379E+00  1.2549E+00
  1.2554E+00  1.2554E+00  1.2635E+00  1.3020E+00  1.3020E+00  1.3186E+00
  1.3422E+00  1.3794E+00  1.3794E+00  1.4481E+00  1.4481E+00  1.4669E+00
  1.4704E+00  1.4741E+00  1.4741E+00  1.4844E+00  1.4844E+00  1.5025E+00
  1.5072E+00  1.5072E+00  1.5235E+00  1.5537E+00  1.5601E+00  1.5601E+00
  1.6157E+00  1.6248E+00  1.6248E+00  1.6807E+00  1.6807E+00  1.6956E+00
  1.7051E+00  1.7051E+00  1.7095E+00  1.7570E+00  1.7570E+00  1.7709E+00
  1.7873E+00  1.7873E+00  1.8191E+00  1.8284E+00  1.8284E+00  1.8371E+00
  1.8429E+00  1.8429E+00  1.8471E+00  1.8808E+00  1.8808E+00  1.9088E+00
  1.9324E+00  1.9324E+00  1.9535E+00  1.9662E+00  1.9761E+00  1.9761E+00
  1.9806E+00  1.9806E+00  2.0014E+00  2.0206E+00  2.0223E+00  2.0223E+00
  2.0334E+00  2.0365E+00  2.0365E+00  2.0659E+00  2.0659E+00  2.0721E+00
  2.1021E+00  2.1156E+00  2.1156E+00  2.1370E+00  2.1410E+00  2.1520E+00
  2.1520E+00  2.1683E+00  2.1808E+00  2.1808E+00  2.2233E+00  2.2274E+00
  2.2274E+00  2.2536E+00  2.2665E+00  2.2679E+00
  prteigrs : nnsclo,ikpt=  200    1 max resid (incl. the buffer)=  5.89053E-05
 Non-SCF case, kpt    2 (  0.25000  0.00000  0.00000), residuals and eigenvalues=
  1.06E-13  2.02E-13  2.75E-13  4.47E-13  3.53E-13  4.42E-13  6.36E-13  4.95E-14
  6.81E-14  1.03E-13  8.74E-14  8.98E-13  5.91E-14  4.20E-13  9.26E-13  5.20E-13
  9.49E-13  5.29E-13  9.82E-13  7.32E-13  6.09E-13  3.32E-14  4.49E-13  4.31E-13
  2.18E-13  1.26E-13  1.79E-13  1.59E-13  2.66E-13  1.81E-13  1.56E-13  1.43E-13
  2.42E-13  3.27E-13  1.42E-13  1.67E-13  4.07E-13  2.04E-13  1.65E-13  2.93E-13
  1.26E-13  2.07E-13  1.90E-13  1.16E-13  1.87E-13  9.57E-14  8.62E-14  1.07E-13
  9.93E-14  1.08E-13  1.09E-13  1.22E-13  1.36E-13  1.17E-13  8.95E-14  1.68E-13
  2.06E-13  1.30E-13  8.79E-14  1.23E-13  1.56E-13  3.42E-13  1.34E-13  3.13E-13
  2.76E-13  1.88E-13  1.24E-13  1.80E-13  2.47E-13  1.59E-13  1.88E-13  2.24E-13
  4.10E-13  1.49E-13  5.55E-13  1.20E-13  4.00E-13  3.79E-13  2.74E-13  2.78E-13
  7.49E-13  4.26E-13  8.12E-13  7.45E-13  8.25E-13  6.59E-14  6.76E-14  6.35E-14
  1.15E-13  1.34E-13  1.07E-13  2.34E-13  2.21E-13  2.38E-13  1.39E-13  5.41E-13
  1.96E-13  7.15E-14  3.02E-13  4.48E-13  2.96E-13  7.43E-14  3.59E-13  6.61E-13
  5.27E-13  8.99E-14  2.10E-13  9.22E-13  6.07E-13  9.08E-13  2.99E-13  9.52E-13
  4.88E-13  4.86E-13  3.96E-13  1.89E-13  2.11E-13  7.14E-13  5.69E-13  6.39E-13
  3.56E-13  2.02E-13  3.42E-13  6.07E-13  2.01E-13  8.46E-13  2.94E-13  4.07E-13
  2.42E-13  9.41E-13  2.42E-13  6.95E-13  3.58E-13  2.93E-13  7.81E-13  3.58E-13
  6.33E-13  2.82E-13  5.91E-13  3.70E-13  6.25E-13  3.55E-13  4.37E-13  7.07E-13
  5.28E-13  9.27E-13  6.86E-13  6.04E-13  8.09E-13  8.10E-13  4.27E-13  9.56E-12
  1.84E-10  1.29E-11  5.31E-10  1.60E-10  1.85E-07  1.24E-05  9.61E-06  2.32E-04
 -6.3684E-01 -5.9318E-01 -5.8435E-01 -5.6220E-01 -5.6025E-01 -5.5935E-01
 -2.4215E-01 -2.2531E-01 -1.3945E-01 -1.3799E-01 -1.3358E-01 -1.1795E-01
 -5.1715E-02 -3.9876E-02 -3.2112E-02 -1.6442E-02 -1.0494E-02  6.8948E-03
  1.0037E-02  2.5452E-02  2.9514E-02  3.4621E-02  5.8052E-02  6.1361E-02
  3.0870E-01  3.9781E-01  3.9942E-01  4.1635E-01  4.2590E-01  4.5320E-01
  4.6556E-01  4.9477E-01  5.0860E-01  5.1547E-01  5.3232E-01  5.4932E-01
  5.6548E-01  5.8611E-01  6.0430E-01  6.0702E-01  6.1668E-01  6.1939E-01
  6.6744E-01  6.8374E-01  7.1317E-01  7.3231E-01  7.4291E-01  7.5573E-01
  7.8363E-01  8.1012E-01  8.2365E-01  8.5326E-01  8.6641E-01  8.9023E-01
  9.1271E-01  9.4562E-01  9.5131E-01  9.7194E-01  9.8134E-01  9.8833E-01
  1.0122E+00  1.0230E+00  1.0460E+00  1.0583E+00  1.0695E+00  1.0781E+00
  1.1060E+00  1.1113E+00  1.1254E+00  1.1401E+00  1.1513E+00  1.1720E+00
  1.1816E+00  1.1949E+00  1.2164E+00  1.2319E+00  1.2462E+00  1.2568E+00
  1.2756E+00  1.2866E+00  1.3027E+00  1.3191E+00  1.3314E+00  1.3491E+00
  1.3904E+00  1.3929E+00  1.4170E+00  1.4321E+00  1.4354E+00  1.4476E+00
  1.4562E+00  1.4715E+00  1.4790E+00  1.4889E+00  1.5019E+00  1.5148E+00
  1.5153E+00  1.5398E+00  1.5458E+00  1.5554E+00  1.5780E+00  1.5900E+00
  1.6031E+00  1.6134E+00  1.6253E+00  1.6333E+00  1.6357E+00  1.6602E+00
  1.6757E+00  1.6819E+00  1.6936E+00  1.7027E+00  1.7210E+00  1.7298E+00
  1.7426E+00  1.7661E+00  1.7721E+00  1.7991E+00  1.8076E+00  1.8155E+00
  1.8324E+00  1.8449E+00  1.8544E+00  1.8702E+00  1.8793E+00  1.8956E+00
  1.9006E+00  1.9073E+00  1.9270E+00  1.9352E+00  1.9451E+00  1.9675E+00
  1.9726E+00  1.9884E+00  1.9967E+00  2.0105E+00  2.0142E+00  2.0339E+00
  2.0366E+00  2.0581E+00  2.0630E+00  2.0776E+00  2.0982E+00  2.1161E+00
  2.1207E+00  2.1372E+00  2.1470E+00  2.1571E+00  2.1675E+00  2.1877E+00
  2.1922E+00  2.2071E+00  2.2133E+00  2.2181E+00  2.2286E+00  2.2339E+00
  2.2524E+00  2.2668E+00  2.2732E+00  2.2845E+00
  prteigrs : nnsclo,ikpt=  200    2 max resid (incl. the buffer)=  2.32424E-04
 Non-SCF case, kpt    3 (  0.50000  0.00000  0.00000), residuals and eigenvalues=
  2.90E-13  2.29E-13  5.59E-13  3.16E-13  5.02E-13  4.09E-13  9.00E-13  7.81E-13
  8.02E-14  8.22E-14  9.98E-13  5.25E-13  1.01E-13  6.73E-14  8.70E-13  7.81E-13
  7.78E-13  8.26E-13  4.64E-13  5.19E-13  5.18E-13  4.19E-13  9.38E-13  3.29E-13
  2.89E-13  2.94E-13  1.90E-13  2.00E-13  1.29E-13  3.13E-13  2.79E-13  2.38E-13
  3.36E-13  1.57E-13  3.56E-13  1.83E-13  1.69E-13  1.39E-13  1.62E-13  1.48E-13
  1.34E-13  1.05E-13  1.06E-13  1.60E-13  9.34E-14  1.28E-13  9.46E-13  1.79E-13
  6.80E-14  2.17E-13  1.61E-13  1.01E-13  1.99E-13  2.58E-13  2.51E-13  1.02E-13
  2.02E-13  1.58E-13  1.27E-13  1.16E-13  1.69E-13  1.76E-13  5.91E-14  1.95E-13
  1.55E-13  3.50E-13  2.42E-13  3.20E-13  5.10E-13  3.71E-13  4.03E-13  2.00E-13
  3.29E-13  3.11E-13  1.49E-13  4.64E-13  4.11E-13  4.62E-13  4.37E-13  5.06E-13
  7.44E-13  5.94E-13  5.22E-14  6.69E-13  6.54E-13  5.61E-14  8.25E-13  9.81E-13
  9.21E-14  6.75E-14  3.14E-13  1.02E-13  8.85E-14  1.46E-13  1.80E-13  2.37E-13
  2.50E-13  6.46E-13  3.14E-13  1.90E-13  6.21E-13  4.93E-13  8.08E-13  9.02E-13
  8.69E-14  8.78E-13  7.65E-13  9.81E-13  4.62E-13  8.17E-13  1.75E-13  2.02E-13
  2.86E-13  4.62E-13  3.16E-13  6.27E-13  8.50E-14  6.66E-13  7.63E-13  1.22E-13
  1.01E-13  4.15E-13  7.46E-13  4.47E-13  5.64E-13  6.76E-13  7.89E-13  9.73E-13
  1.92E-13  3.99E-13  4.65E-13  4.81E-13  2.75E-13  6.46E-13  3.98E-13  8.02E-13
  8.98E-13  8.89E-13  6.55E-13  4.71E-13  6.34E-13  5.83E-13  6.75E-13  4.73E-13
  5.90E-13  8.83E-13  5.89E-13  7.32E-13  6.73E-13  5.55E-13  1.74E-12  2.10E-11
  1.75E-10  9.03E-10  7.41E-09  4.47E-08  5.64E-08  5.11E-06  5.80E-05  5.69E-05
 -6.2499E-01 -6.0679E-01 -5.8319E-01 -5.6306E-01 -5.6144E-01 -5.6014E-01
 -2.4465E-01 -2.0732E-01 -1.5235E-01 -1.3624E-01 -1.3608E-01 -1.0643E-01
 -5.0031E-02 -4.2896E-02 -3.5623E-02 -2.0119E-02 -1.1740E-02 -5.2393E-05
  5.4820E-03  2.4312E-02  2.6538E-02  3.7470E-02  5.5884E-02  6.5311E-02
  3.6048E-01  3.8630E-01  4.1225E-01  4.1306E-01  4.4305E-01  4.4433E-01
  4.6979E-01  4.7107E-01  4.9268E-01  5.1419E-01  5.2050E-01  5.3253E-01
  5.4024E-01  5.8544E-01  5.9356E-01  6.1424E-01  6.1571E-01  6.3458E-01
  6.6003E-01  6.7878E-01  7.2489E-01  7.5902E-01  7.5958E-01  7.7626E-01
  7.7697E-01  8.0965E-01  8.1318E-01  8.4462E-01  8.4606E-01  8.5924E-01
  9.0585E-01  9.3068E-01  9.3636E-01  9.6531E-01  9.6859E-01  9.8811E-01
  9.9659E-01  1.0143E+00  1.0485E+00  1.0603E+00  1.0625E+00  1.0904E+00
  1.1030E+00  1.1311E+00  1.1470E+00  1.1541E+00  1.1748E+00  1.1966E+00
  1.2093E+00  1.2102E+00  1.2417E+00  1.2503E+00  1.2680E+00  1.2894E+00
  1.2900E+00  1.3050E+00  1.3214E+00  1.3238E+00  1.3520E+00  1.3664E+00
  1.3795E+00  1.3875E+00  1.4016E+00  1.4042E+00  1.4326E+00  1.4426E+00
  1.4617E+00  1.4657E+00  1.4765E+00  1.4790E+00  1.5029E+00  1.5109E+00
  1.5193E+00  1.5378E+00  1.5385E+00  1.5507E+00  1.5804E+00  1.5943E+00
  1.5990E+00  1.6094E+00  1.6164E+00  1.6176E+00  1.6352E+00  1.6465E+00
  1.6544E+00  1.6545E+00  1.6825E+00  1.7058E+00  1.7098E+00  1.7218E+00
  1.7477E+00  1.7486E+00  1.7663E+00  1.7766E+00  1.7908E+00  1.8006E+00
  1.8007E+00  1.8213E+00  1.8395E+00  1.8484E+00  1.8724E+00  1.8770E+00
  1.8901E+00  1.8913E+00  1.9096E+00  1.9298E+00  1.9565E+00  1.9645E+00
  1.9737E+00  1.9905E+00  1.9961E+00  2.0009E+00  2.0248E+00  2.0284E+00
  2.0484E+00  2.0617E+00  2.0744E+00  2.0948E+00  2.1187E+00  2.1262E+00
  2.1316E+00  2.1350E+00  2.1502E+00  2.1539E+00  2.1612E+00  2.1720E+00
  2.1752E+00  2.1873E+00  2.2008E+00  2.2218E+00  2.2276E+00  2.2374E+00
  2.2440E+00  2.2704E+00  2.2809E+00  2.2885E+00
  prteigrs : nnsclo,ikpt=  200    3 max resid (incl. the buffer)=  5.80323E-05
 Non-SCF case, kpt    4 (  0.25000  0.25000  0.00000), residuals and eigenvalues=
  1.63E-13  3.27E-13  3.07E-13  2.09E-13  4.16E-13  5.67E-13  4.91E-14  1.05E-13
  5.50E-14  9.04E-13  7.00E-14  7.32E-13  9.35E-13  7.86E-13  4.76E-14  8.46E-13
  8.66E-13  8.13E-13  8.86E-13  6.12E-13  5.01E-13  4.09E-13  4.51E-13  3.27E-13
  2.07E-13  2.08E-13  2.80E-13  2.62E-13  1.77E-13  2.64E-13  1.54E-13  1.32E-13
  2.73E-13  7.74E-14  2.32E-13  3.21E-13  1.72E-13  1.12E-13  1.63E-13  1.32E-13
  2.78E-13  1.48E-13  9.72E-14  1.53E-13  1.13E-13  1.26E-13  1.34E-13  8.17E-14
  1.30E-13  9.29E-14  1.50E-13  1.16E-13  1.07E-13  1.41E-13  1.30E-13  9.61E-14
  1.91E-13  1.38E-13  2.18E-13  7.75E-14  1.48E-13  1.96E-13  1.45E-13  1.88E-13
  1.17E-13  2.80E-13  3.18E-13  3.44E-13  2.54E-13  1.56E-13  1.68E-13  4.26E-13
  1.48E-13  3.57E-13  6.83E-13  5.35E-13  6.21E-13  4.24E-13  3.24E-13  9.34E-13
  5.36E-14  4.42E-13  8.23E-13  7.98E-13  4.14E-14  4.45E-14  4.76E-14  1.07E-13
  8.19E-14  9.49E-14  5.72E-13  1.99E-13  1.94E-13  2.03E-13  1.31E-13  2.83E-13
  2.30E-13  1.97E-13  2.15E-13  1.57E-13  5.85E-13  5.79E-13  4.15E-13  7.07E-13
  1.96E-13  1.34E-13  7.83E-13  6.65E-13  4.65E-13  9.42E-13  1.27E-13  1.76E-13
  2.87E-13  2.25E-13  3.87E-13  6.49E-13  1.17E-13  3.78E-13  2.24E-13  4.51E-13
  4.79E-13  2.37E-13  1.89E-13  5.40E-13  2.76E-13  5.86E-13  2.46E-13  3.20E-13
  6.23E-13  3.73E-13  8.25E-13  7.58E-13  2.94E-13  5.78E-13  6.63E-13  6.22E-13
  3.40E-13  5.46E-13  3.30E-13  4.17E-13  7.11E-13  3.23E-13  4.30E-13  4.32E-13
  5.07E-13  5.89E-13  3.88E-13  4.15E-13  5.93E-13  5.70E-13  9.69E-13  5.61E-13
  6.91E-12  4.79E-10  4.43E-10  1.20E-08  1.53E-08  3.06E-06  1.76E-05  4.46E-06
 -6.2533E-01 -6.0579E-01 -5.8419E-01 -5.6293E-01 -5.6123E-01 -5.6012E-01
 -2.4565E-01 -2.0219E-01 -1.6250E-01 -1.3535E-01 -1.3048E-01 -1.0619E-01
 -4.8726E-02 -4.2337E-02 -3.6923E-02 -1.5334E-02 -1.3337E-02  2.6441E-04
  1.0276E-02  1.5071E-02  2.5846E-02  4.2753E-02  5.5547E-02  6.5581E-02
  3.5509E-01  4.0192E-01  4.0276E-01  4.2754E-01  4.3165E-01  4.4789E-01
  4.5156E-01  4.7464E-01  5.0355E-01  5.0568E-01  5.2183E-01  5.3591E-01
  5.4024E-01  5.8523E-01  5.8958E-01  6.1465E-01  6.2522E-01  6.3210E-01
  6.7775E-01  6.9903E-01  6.9938E-01  7.4349E-01  7.4615E-01  7.6588E-01
  7.9584E-01  7.9791E-01  8.1167E-01  8.4648E-01  8.7059E-01  8.7200E-01
  8.9644E-01  9.1013E-01  9.2242E-01  9.6119E-01  9.6337E-01  9.9342E-01
  1.0046E+00  1.0288E+00  1.0518E+00  1.0619E+00  1.0849E+00  1.1091E+00
  1.1145E+00  1.1322E+00  1.1383E+00  1.1645E+00  1.1700E+00  1.1905E+00
  1.1938E+00  1.2036E+00  1.2214E+00  1.2411E+00  1.2651E+00  1.2844E+00
  1.2901E+00  1.3130E+00  1.3131E+00  1.3362E+00  1.3408E+00  1.3673E+00
  1.3802E+00  1.3882E+00  1.4085E+00  1.4094E+00  1.4273E+00  1.4428E+00
  1.4495E+00  1.4652E+00  1.4721E+00  1.4816E+00  1.4984E+00  1.5112E+00
  1.5212E+00  1.5239E+00  1.5529E+00  1.5646E+00  1.5902E+00  1.5905E+00
  1.6045E+00  1.6112E+00  1.6233E+00  1.6280E+00  1.6378E+00  1.6398E+00
  1.6567E+00  1.6702E+00  1.6830E+00  1.6834E+00  1.6966E+00  1.7047E+00
  1.7401E+00  1.7439E+00  1.7609E+00  1.7799E+00  1.7931E+00  1.8117E+00
  1.8307E+00  1.8374E+00  1.8484E+00  1.8589E+00  1.8719E+00  1.8804E+00
  1.8949E+00  1.9118E+00  1.9236E+00  1.9381E+00  1.9454E+00  1.9493E+00
  1.9796E+00  1.9893E+00  1.9922E+00  1.9982E+00  2.0202E+00  2.0209E+00
  2.0327E+00  2.0526E+00  2.0661E+00  2.0750E+00  2.1019E+00  2.1061E+00
  2.1137E+00  2.1324E+00  2.1357E+00  2.1427E+00  2.1580E+00  2.1699E+00
  2.1728E+00  2.1879E+00  2.2027E+00  2.2268E+00  2.2356E+00  2.2396E+00
  2.2513E+00  2.2691E+00  2.2802E+00  2.2911E+00
  prteigrs : nnsclo,ikpt=  200    4 max resid (incl. the buffer)=  1.75943E-05
 Non-SCF case, kpt    5 (  0.00000  0.00000  0.33333), residuals and eigenvalues=
  2.39E-13  2.16E-13  4.80E-14  3.90E-13  5.73E-13  5.18E-13  8.15E-13  6.47E-14
  8.43E-14  1.21E-13  7.15E-13  5.42E-14  8.67E-14  5.77E-14  8.59E-14  4.91E-14
  6.37E-13  5.98E-14  8.04E-13  3.97E-14  5.55E-13  5.35E-13  4.29E-13  7.20E-13
  2.70E-13  2.83E-13  4.68E-14  2.02E-13  4.12E-13  2.49E-13  4.71E-13  2.83E-13
  1.99E-13  3.57E-13  1.71E-13  2.90E-13  2.44E-13  1.43E-13  1.89E-13  2.37E-13
  7.19E-14  1.45E-13  1.85E-13  1.24E-13  1.89E-13  2.11E-13  2.80E-13  2.21E-13
  7.41E-13  1.42E-13  5.43E-14  6.39E-14  1.01E-13  9.27E-14  3.49E-13  1.96E-13
  1.36E-13  1.03E-13  1.03E-13  1.49E-13  1.14E-13  7.42E-14  1.38E-13  1.95E-13
  1.11E-13  1.15E-13  4.21E-13  3.12E-13  6.53E-13  3.96E-13  5.84E-13  4.99E-13
  4.69E-13  3.49E-13  4.93E-13  1.32E-13  5.68E-13  5.14E-13  5.58E-13  6.88E-13
  6.05E-13  7.08E-13  5.71E-13  4.58E-14  5.46E-13  4.94E-13  4.86E-13  7.01E-14
  5.26E-14  8.34E-14  1.09E-13  1.31E-13  2.75E-13  7.66E-13  2.29E-13  8.79E-14
  2.17E-13  4.94E-13  4.69E-13  2.89E-13  6.56E-13  4.23E-13  1.55E-13  1.23E-13
  1.04E-13  4.89E-13  5.21E-13  4.98E-13  1.18E-13  2.93E-13  1.00E-13  1.07E-13
  1.68E-13  4.14E-13  1.72E-13  9.20E-13  2.18E-13  3.17E-13  7.62E-13  7.55E-13
  9.91E-13  9.20E-13  9.01E-13  5.99E-13  1.66E-13  3.40E-13  4.67E-13  5.70E-13
  8.91E-13  3.01E-13  3.31E-13  3.35E-13  5.68E-13  8.69E-13  6.37E-13  3.07E-13
  2.80E-13  6.92E-13  8.11E-13  8.58E-13  6.71E-13  3.95E-13  8.55E-13  4.80E-13
  7.34E-13  9.91E-13  4.79E-13  5.28E-13  7.65E-13  9.19E-13  8.05E-13  7.13E-13
  4.94E-11  1.14E-08  8.26E-09  2.45E-08  1.87E-07  2.96E-06  1.01E-06  3.31E-05
 -6.3546E-01 -6.1352E-01 -5.6424E-01 -5.6025E-01 -5.5979E-01 -5.5802E-01
 -2.7476E-01 -1.8906E-01 -1.5080E-01 -1.4069E-01 -1.3886E-01 -1.1122E-01
 -4.4697E-02 -3.3763E-02 -3.0554E-02 -1.5165E-02 -3.8074E-03  9.5109E-04
  6.6400E-03  8.9222E-03  2.4075E-02  5.0376E-02  6.0755E-02  6.4151E-02
  3.1274E-01  3.7703E-01  3.9304E-01  3.9937E-01  4.3404E-01  4.3776E-01
  4.6387E-01  4.8978E-01  4.9884E-01  5.2892E-01  5.4655E-01  5.6500E-01
  5.6818E-01  5.7067E-01  6.0096E-01  6.2207E-01  6.2253E-01  6.3256E-01
  6.4339E-01  6.9705E-01  6.9897E-01  7.0881E-01  7.7409E-01  8.1391E-01
  8.2089E-01  8.2336E-01  8.4717E-01  8.5527E-01  8.6927E-01  8.8166E-01
  8.8816E-01  9.1259E-01  9.4113E-01  9.6513E-01  9.7758E-01  9.7942E-01
  1.0120E+00  1.0424E+00  1.0521E+00  1.0538E+00  1.0696E+00  1.0981E+00
  1.1164E+00  1.1264E+00  1.1276E+00  1.1296E+00  1.1644E+00  1.1800E+00
  1.1850E+00  1.1980E+00  1.2131E+00  1.2170E+00  1.2580E+00  1.2581E+00
  1.2822E+00  1.2950E+00  1.2971E+00  1.3026E+00  1.3090E+00  1.3173E+00
  1.3305E+00  1.3484E+00  1.3636E+00  1.3736E+00  1.3802E+00  1.4236E+00
  1.4318E+00  1.4566E+00  1.4637E+00  1.4913E+00  1.4945E+00  1.4975E+00
  1.5195E+00  1.5300E+00  1.5355E+00  1.5557E+00  1.5565E+00  1.6000E+00
  1.6131E+00  1.6303E+00  1.6476E+00  1.6636E+00  1.6649E+00  1.6656E+00
  1.6797E+00  1.7027E+00  1.7117E+00  1.7257E+00  1.7298E+00  1.7627E+00
  1.7638E+00  1.7717E+00  1.7740E+00  1.8185E+00  1.8227E+00  1.8356E+00
  1.8453E+00  1.8518E+00  1.8647E+00  1.9001E+00  1.9061E+00  1.9182E+00
  1.9296E+00  1.9572E+00  1.9615E+00  1.9749E+00  1.9883E+00  1.9964E+00
  1.9974E+00  2.0067E+00  2.0206E+00  2.0243E+00  2.0421E+00  2.0454E+00
  2.0551E+00  2.0574E+00  2.0675E+00  2.0972E+00  2.1072E+00  2.1078E+00
  2.1331E+00  2.1358E+00  2.1477E+00  2.1541E+00  2.1700E+00  2.1736E+00
  2.1827E+00  2.1857E+00  2.2048E+00  2.2229E+00  2.2297E+00  2.2371E+00
  2.2397E+00  2.2508E+00  2.2539E+00  2.2823E+00
  prteigrs : nnsclo,ikpt=  200    5 max resid (incl. the buffer)=  3.30605E-05
 Non-SCF case, kpt    6 (  0.25000  0.00000  0.33333), residuals and eigenvalues=
  1.15E-13  3.52E-13  2.91E-13  4.57E-13  4.31E-13  5.38E-13  9.33E-13  1.83E-13
  8.59E-13  7.10E-13  9.01E-13  9.11E-13  1.12E-13  7.91E-14  6.27E-14  4.30E-14
  5.56E-14  9.40E-13  5.96E-13  8.86E-13  4.46E-14  7.21E-13  5.82E-13  4.48E-13
  2.00E-13  2.58E-13  1.39E-13  9.07E-14  4.71E-13  2.08E-13  5.36E-13  2.24E-13
  3.03E-13  1.45E-13  3.30E-13  2.58E-13  1.74E-13  3.46E-13  2.33E-13  1.89E-13
  2.97E-13  3.99E-13  1.31E-13  1.65E-13  1.10E-13  2.25E-13  7.25E-14  1.32E-13
  1.52E-13  9.14E-14  1.68E-13  8.10E-14  1.12E-13  2.19E-13  7.81E-14  8.65E-14
  3.01E-13  1.39E-13  9.76E-14  1.54E-13  1.26E-13  2.03E-13  1.70E-13  2.25E-13
  2.56E-13  1.98E-13  1.92E-13  3.06E-13  3.01E-13  8.63E-13  3.85E-13  8.43E-13
  2.57E-13  3.52E-13  1.51E-13  6.61E-13  5.42E-13  4.76E-13  7.63E-13  5.94E-13
  6.91E-13  5.07E-13  6.29E-13  4.65E-14  4.98E-14  8.80E-13  6.70E-13  1.02E-13
  1.07E-13  1.14E-13  1.13E-13  5.63E-14  9.93E-14  1.33E-13  1.08E-13  1.63E-13
  2.23E-13  1.61E-13  2.24E-13  1.37E-13  4.99E-13  5.85E-13  8.60E-13  9.47E-13
  1.17E-13  5.93E-13  5.59E-13  2.13E-13  2.02E-13  6.16E-13  2.37E-13  6.53E-13
  8.72E-14  1.12E-13  8.02E-13  1.92E-13  5.47E-13  1.43E-13  1.44E-13  1.60E-13
  6.94E-13  6.55E-13  5.35E-13  5.39E-13  7.71E-13  5.91E-13  1.82E-13  4.60E-13
  9.63E-13  8.31E-13  7.63E-13  7.34E-13  9.42E-13  3.30E-13  5.52E-13  3.61E-13
  9.25E-13  4.43E-13  4.46E-13  6.28E-13  5.89E-13  4.73E-13  8.85E-13  7.47E-13
  4.62E-13  8.87E-13  3.27E-13  4.84E-13  4.76E-13  7.62E-13  6.70E-13  1.63E-12
  6.18E-13  1.29E-12  8.46E-10  3.45E-10  1.25E-08  4.29E-08  1.38E-05  6.24E-05
 -6.2991E-01 -6.1105E-01 -5.7304E-01 -5.6200E-01 -5.6103E-01 -5.5896E-01
 -2.6026E-01 -1.9412E-01 -1.6107E-01 -1.3608E-01 -1.2816E-01 -1.1602E-01
 -5.2378E-02 -3.8663E-02 -3.0177E-02 -1.8687E-02 -7.6025E-03  5.4898E-03
  9.8694E-03  1.7829E-02  2.9516E-02  4.2041E-02  5.6601E-02  6.0413E-02
  3.3766E-01  3.8675E-01  3.9663E-01  4.0658E-01  4.3792E-01  4.4097E-01
  4.6410E-01  4.7295E-01  5.0220E-01  5.1236E-01  5.1871E-01  5.3763E-01
  5.6357E-01  5.7731E-01  6.1193E-01  6.2350E-01  6.3063E-01  6.3633E-01
  6.7068E-01  6.8784E-01  6.9645E-01  7.2144E-01  7.3713E-01  7.7186E-01
  8.0137E-01  8.0692E-01  8.4127E-01  8.4951E-01  8.7602E-01  8.8554E-01
  9.2073E-01  9.3070E-01  9.5764E-01  9.6354E-01  9.9811E-01  1.0054E+00
  1.0149E+00  1.0243E+00  1.0320E+00  1.0650E+00  1.0678E+00  1.0747E+00
  1.0952E+00  1.1200E+00  1.1385E+00  1.1490E+00  1.1621E+00  1.1694E+00
  1.1774E+00  1.2123E+00  1.2182E+00  1.2218E+00  1.2539E+00  1.2688E+00
  1.2808E+00  1.2904E+00  1.2966E+00  1.3089E+00  1.3220E+00  1.3552E+00
  1.3590E+00  1.3885E+00  1.4072E+00  1.4088E+00  1.4226E+00  1.4416E+00
  1.4430E+00  1.4592E+00  1.4668E+00  1.4790E+00  1.4986E+00  1.5041E+00
  1.5133E+00  1.5145E+00  1.5349E+00  1.5500E+00  1.5741E+00  1.5849E+00
  1.5977E+00  1.6183E+00  1.6284E+00  1.6322E+00  1.6470E+00  1.6632E+00
  1.6762E+00  1.6830E+00  1.6943E+00  1.7077E+00  1.7252E+00  1.7351E+00
  1.7504E+00  1.7576E+00  1.7628E+00  1.7778E+00  1.7814E+00  1.8030E+00
  1.8259E+00  1.8307E+00  1.8565E+00  1.8772E+00  1.8839E+00  1.8924E+00
  1.9191E+00  1.9261E+00  1.9445E+00  1.9504E+00  1.9746E+00  1.9800E+00
  1.9898E+00  2.0020E+00  2.0072E+00  2.0240E+00  2.0391E+00  2.0561E+00
  2.0661E+00  2.0788E+00  2.0927E+00  2.0996E+00  2.1160E+00  2.1283E+00
  2.1372E+00  2.1489E+00  2.1646E+00  2.1724E+00  2.1745E+00  2.1878E+00
  2.1948E+00  2.2029E+00  2.2049E+00  2.2098E+00  2.2372E+00  2.2407E+00
  2.2538E+00  2.2637E+00  2.2898E+00  2.3026E+00
  prteigrs : nnsclo,ikpt=  200    6 max resid (incl. the buffer)=  6.24187E-05
 Non-SCF case, kpt    7 (  0.50000  0.00000  0.33333), residuals and eigenvalues=
  2.37E-13  2.66E-13  4.24E-13  3.71E-13  4.09E-13  3.26E-13  5.82E-14  6.99E-13
  7.83E-14  8.22E-14  7.10E-13  9.85E-13  5.90E-14  9.34E-13  5.29E-14  8.49E-13
  5.18E-14  6.39E-14  5.08E-13  8.35E-13  6.97E-13  3.75E-13  8.26E-13  5.13E-13
  2.57E-13  2.77E-13  1.50E-13  1.92E-13  2.88E-13  1.27E-13  3.26E-13  2.06E-13
  1.62E-13  1.76E-13  4.53E-13  4.06E-13  2.15E-13  5.21E-14  2.11E-13  1.69E-13
  1.34E-13  1.49E-13  3.08E-13  1.10E-13  3.79E-13  1.18E-13  1.48E-13  2.45E-13
  7.28E-14  6.98E-14  2.60E-13  1.37E-13  9.45E-14  1.69E-13  7.37E-14  1.66E-13
  1.36E-13  1.40E-13  9.20E-14  1.65E-13  1.79E-13  1.56E-13  2.29E-13  2.76E-13
  9.41E-14  1.77E-13  2.28E-13  2.10E-13  1.30E-13  1.62E-13  2.94E-13  7.50E-13
  2.57E-13  3.00E-13  2.50E-13  7.29E-13  4.53E-13  4.58E-13  6.34E-13  5.91E-13
  6.30E-13  5.92E-14  3.77E-13  9.21E-14  4.66E-13  4.83E-14  8.02E-14  5.21E-14
  9.32E-13  6.07E-14  7.38E-14  2.05E-13  9.09E-14  2.62E-13  1.62E-13  7.86E-14
  3.38E-13  2.24E-13  6.25E-13  4.27E-13  2.93E-13  9.00E-13  9.22E-14  1.60E-13
  6.39E-13  8.37E-14  1.32E-13  1.65E-13  7.29E-13  2.09E-13  2.22E-13  1.15E-13
  8.01E-13  2.54E-13  8.34E-14  1.95E-13  1.70E-13  5.24E-13  1.86E-13  1.58E-13
  3.45E-13  5.19E-13  7.32E-13  6.24E-13  8.80E-13  2.40E-13  2.73E-13  2.08E-13
  4.78E-13  3.15E-13  3.34E-13  1.83E-13  2.94E-13  1.90E-13  4.32E-13  5.13E-13
  8.86E-13  2.83E-13  6.74E-13  4.36E-13  3.80E-13  4.82E-13  8.99E-13  4.29E-13
  9.79E-13  4.89E-13  5.96E-13  5.34E-13  6.08E-13  4.65E-13  5.40E-12  3.33E-11
  1.24E-10  4.86E-11  1.32E-08  1.26E-07  4.29E-07  2.10E-06  2.92E-05  4.87E-05
 -6.2295E-01 -6.0577E-01 -5.8716E-01 -5.6352E-01 -5.6133E-01 -5.5974E-01
 -2.4064E-01 -2.0377E-01 -1.6750E-01 -1.3431E-01 -1.2161E-01 -1.1697E-01
 -5.3288E-02 -5.1763E-02 -2.6716E-02 -1.8768E-02 -7.4404E-03  4.1299E-03
  1.5559E-02  2.3481E-02  2.8788E-02  4.1505E-02  4.4603E-02  6.0952E-02
  3.7668E-01  3.9215E-01  4.0764E-01  4.2347E-01  4.4012E-01  4.4313E-01
  4.4670E-01  4.6418E-01  4.8209E-01  4.9912E-01  5.0432E-01  5.2777E-01
  5.4708E-01  5.7620E-01  6.1460E-01  6.2019E-01  6.3224E-01  6.4693E-01
  6.7397E-01  6.7848E-01  6.9501E-01  7.3622E-01  7.5242E-01  7.6528E-01
  7.8717E-01  8.0120E-01  8.3166E-01  8.5396E-01  8.7859E-01  8.9593E-01
  9.1763E-01  9.2835E-01  9.3568E-01  9.4049E-01  9.5378E-01  9.7318E-01
  1.0155E+00  1.0361E+00  1.0471E+00  1.0545E+00  1.0814E+00  1.0889E+00
  1.1281E+00  1.1445E+00  1.1489E+00  1.1581E+00  1.1777E+00  1.1880E+00
  1.1969E+00  1.2199E+00  1.2303E+00  1.2489E+00  1.2626E+00  1.2793E+00
  1.2895E+00  1.3089E+00  1.3131E+00  1.3328E+00  1.3385E+00  1.3503E+00
  1.3724E+00  1.3795E+00  1.3941E+00  1.4025E+00  1.4058E+00  1.4259E+00
  1.4422E+00  1.4447E+00  1.4687E+00  1.4752E+00  1.4820E+00  1.4984E+00
  1.5106E+00  1.5213E+00  1.5428E+00  1.5600E+00  1.5734E+00  1.5912E+00
  1.5959E+00  1.6024E+00  1.6257E+00  1.6304E+00  1.6421E+00  1.6585E+00
  1.6616E+00  1.6703E+00  1.6852E+00  1.7068E+00  1.7109E+00  1.7194E+00
  1.7397E+00  1.7622E+00  1.7702E+00  1.7896E+00  1.8044E+00  1.8089E+00
  1.8216E+00  1.8349E+00  1.8438E+00  1.8626E+00  1.8768E+00  1.8813E+00
  1.8884E+00  1.8961E+00  1.9223E+00  1.9257E+00  1.9428E+00  1.9572E+00
  1.9658E+00  1.9778E+00  2.0052E+00  2.0081E+00  2.0194E+00  2.0271E+00
  2.0435E+00  2.0628E+00  2.0744E+00  2.0848E+00  2.0897E+00  2.1061E+00
  2.1252E+00  2.1311E+00  2.1403E+00  2.1545E+00  2.1763E+00  2.1858E+00
  2.2047E+00  2.2107E+00  2.2198E+00  2.2208E+00  2.2455E+00  2.2599E+00
  2.2772E+00  2.2853E+00  2.2899E+00  2.3021E+00
  prteigrs : nnsclo,ikpt=  200    7 max resid (incl. the buffer)=  4.87251E-05
 Non-SCF case, kpt    8 ( -0.25000  0.00000  0.33333), residuals and eigenvalues=
  2.38E-13  3.16E-13  4.65E-13  3.95E-13  4.07E-13  4.88E-13  9.44E-13  6.29E-14
  7.79E-13  4.84E-14  9.98E-14  1.39E-13  8.36E-14  8.92E-13  6.93E-13  6.51E-13
  4.99E-14  9.10E-13  7.00E-13  6.45E-14  5.86E-13  3.38E-13  6.84E-13  5.48E-13
  1.89E-13  4.35E-13  1.54E-13  1.21E-13  1.38E-13  2.48E-13  1.77E-13  2.10E-13
  4.12E-13  2.45E-13  2.62E-13  1.90E-13  2.27E-13  1.72E-13  1.77E-13  2.09E-13
  1.10E-13  1.99E-13  1.19E-13  9.72E-14  1.53E-13  1.40E-13  1.27E-13  1.01E-13
  1.71E-13  9.46E-14  1.28E-13  1.91E-13  7.42E-14  8.06E-14  1.01E-13  1.26E-13
  1.90E-13  1.34E-13  1.23E-13  1.84E-13  1.55E-13  8.37E-14  1.88E-13  1.78E-13
  1.08E-13  1.89E-13  1.21E-13  1.97E-13  1.07E-13  1.89E-13  1.78E-13  3.63E-13
  2.72E-13  2.28E-13  3.60E-13  2.70E-13  3.84E-14  1.54E-13  2.41E-13  4.22E-13
  5.70E-13  3.55E-13  7.68E-13  6.89E-13  4.89E-14  4.74E-13  8.53E-13  7.40E-13
  7.61E-13  1.11E-13  9.84E-14  9.85E-13  1.07E-13  8.32E-14  1.12E-13  9.01E-14
  3.52E-13  1.68E-13  2.10E-13  3.16E-13  3.23E-13  7.53E-13  9.30E-14  2.46E-13
  1.52E-13  9.00E-14  9.11E-13  9.12E-13  2.30E-13  1.23E-13  2.77E-13  3.93E-13
  1.53E-13  5.96E-13  1.11E-13  3.00E-13  3.33E-13  1.03E-13  7.38E-13  1.99E-13
  6.55E-13  7.64E-13  6.43E-13  2.79E-13  5.62E-13  5.54E-13  2.52E-13  3.10E-13
  5.40E-13  8.56E-13  2.20E-13  5.67E-13  4.49E-13  2.88E-13  5.93E-13  3.17E-13
  2.86E-13  8.24E-13  4.83E-13  7.66E-13  8.35E-13  6.85E-13  3.95E-13  6.43E-13
  7.00E-13  7.61E-13  7.75E-13  8.63E-13  6.50E-13  7.15E-13  9.54E-13  2.00E-11
  1.39E-10  9.50E-10  1.36E-09  6.29E-09  3.23E-08  1.28E-07  1.60E-05  1.98E-05
 -6.3002E-01 -6.1073E-01 -5.7384E-01 -5.6194E-01 -5.6014E-01 -5.5930E-01
 -2.6028E-01 -1.9430E-01 -1.6094E-01 -1.3663E-01 -1.2859E-01 -1.1430E-01
 -5.2168E-02 -3.7903E-02 -2.9891E-02 -2.1865E-02 -1.0411E-02  8.2946E-03
  1.3269E-02  1.6524E-02  3.0561E-02  3.9770E-02  5.3029E-02  6.4407E-02
  3.3584E-01  3.9385E-01  3.9892E-01  4.0981E-01  4.2736E-01  4.3705E-01
  4.6042E-01  4.7262E-01  5.0448E-01  5.1408E-01  5.2454E-01  5.3933E-01
  5.6459E-01  5.7964E-01  6.1066E-01  6.2197E-01  6.2500E-01  6.3814E-01
  6.5093E-01  6.9010E-01  7.0058E-01  7.3378E-01  7.4594E-01  7.7156E-01
  7.9557E-01  8.0523E-01  8.4343E-01  8.6392E-01  8.7332E-01  8.8124E-01
  9.2360E-01  9.2851E-01  9.5022E-01  9.7211E-01  9.8045E-01  9.9723E-01
  1.0112E+00  1.0253E+00  1.0295E+00  1.0536E+00  1.0668E+00  1.0873E+00
  1.1031E+00  1.1168E+00  1.1327E+00  1.1505E+00  1.1632E+00  1.1757E+00
  1.2000E+00  1.2139E+00  1.2190E+00  1.2299E+00  1.2577E+00  1.2603E+00
  1.2812E+00  1.2877E+00  1.3034E+00  1.3201E+00  1.3291E+00  1.3384E+00
  1.3559E+00  1.3733E+00  1.3960E+00  1.4179E+00  1.4195E+00  1.4245E+00
  1.4442E+00  1.4565E+00  1.4588E+00  1.4695E+00  1.4987E+00  1.5036E+00
  1.5231E+00  1.5297E+00  1.5351E+00  1.5516E+00  1.5782E+00  1.5904E+00
  1.6030E+00  1.6155E+00  1.6240E+00  1.6439E+00  1.6565E+00  1.6598E+00
  1.6711E+00  1.6836E+00  1.6883E+00  1.6997E+00  1.7162E+00  1.7313E+00
  1.7522E+00  1.7551E+00  1.7623E+00  1.7744E+00  1.7915E+00  1.8006E+00
  1.8301E+00  1.8563E+00  1.8638E+00  1.8724E+00  1.8808E+00  1.9024E+00
  1.9174E+00  1.9214E+00  1.9434E+00  1.9477E+00  1.9815E+00  1.9835E+00
  1.9902E+00  1.9989E+00  2.0150E+00  2.0217E+00  2.0268E+00  2.0476E+00
  2.0559E+00  2.0825E+00  2.0884E+00  2.0917E+00  2.1121E+00  2.1146E+00
  2.1256E+00  2.1501E+00  2.1534E+00  2.1752E+00  2.1782E+00  2.1904E+00
  2.2008E+00  2.2110E+00  2.2187E+00  2.2300E+00  2.2390E+00  2.2408E+00
  2.2508E+00  2.2599E+00  2.2856E+00  2.2904E+00
  prteigrs : nnsclo,ikpt=  200    8 max resid (incl. the buffer)=  1.98248E-05
 Non-SCF case, kpt    9 (  0.25000  0.25000  0.33333), residuals and eigenvalues=
  2.09E-13  1.46E-13  2.23E-13  4.17E-13  3.49E-13  2.28E-13  1.13E-13  1.16E-13
  4.42E-13  9.26E-14  7.13E-14  9.86E-14  5.92E-13  6.17E-14  6.14E-14  7.47E-14
  5.95E-14  3.77E-13  7.28E-13  4.04E-13  4.85E-13  3.92E-14  3.75E-13  5.95E-13
  1.77E-13  1.40E-13  2.23E-13  1.78E-13  1.27E-13  1.80E-13  1.20E-13  2.69E-13
  2.29E-13  2.63E-13  3.67E-13  1.58E-13  2.22E-13  1.60E-13  1.75E-13  1.30E-13
  2.05E-13  2.32E-13  1.34E-13  2.19E-13  7.99E-14  1.92E-13  1.28E-13  8.53E-14
  1.14E-13  1.31E-13  1.78E-13  4.03E-13  1.50E-13  8.11E-14  1.49E-13  3.38E-13
  1.46E-13  3.02E-13  6.41E-14  1.22E-13  1.68E-13  2.57E-13  2.14E-13  2.71E-13
  1.96E-13  7.07E-13  2.78E-13  3.00E-13  1.29E-13  3.86E-13  2.70E-13  2.99E-13
  3.54E-13  2.77E-13  3.30E-13  4.50E-13  5.54E-13  3.68E-13  8.37E-13  5.69E-13
  9.07E-13  5.36E-14  4.22E-14  7.71E-13  2.25E-13  7.19E-14  5.32E-14  1.19E-13
  8.91E-14  1.11E-13  6.18E-14  1.86E-13  7.43E-14  3.79E-13  1.49E-13  1.37E-13
  1.13E-13  4.74E-13  5.58E-13  1.96E-13  3.31E-13  7.64E-13  1.43E-13  1.62E-13
  1.60E-13  4.65E-13  1.47E-13  2.52E-13  1.63E-13  1.77E-13  4.56E-13  2.81E-13
  8.93E-13  3.96E-13  4.30E-13  8.14E-14  1.19E-13  1.09E-13  2.39E-13  2.70E-13
  2.71E-13  5.71E-13  6.88E-13  2.14E-13  3.84E-13  2.44E-13  5.55E-13  1.62E-13
  5.54E-13  5.12E-13  2.38E-13  3.58E-13  6.34E-13  5.97E-13  4.94E-13  8.05E-13
  4.23E-13  5.64E-13  4.59E-13  6.45E-13  6.09E-13  9.36E-13  5.82E-13  3.83E-13
  7.31E-13  6.73E-13  9.52E-13  8.35E-13  4.19E-13  8.41E-13  2.65E-12  1.84E-11
  3.33E-11  2.67E-09  2.72E-09  3.00E-08  2.82E-08  3.49E-07  4.10E-06  1.05E-05
 -6.2280E-01 -6.0650E-01 -5.8611E-01 -5.6320E-01 -5.6181E-01 -5.6009E-01
 -2.4048E-01 -2.0127E-01 -1.7209E-01 -1.3268E-01 -1.2217E-01 -1.1703E-01
 -5.4811E-02 -4.5440E-02 -3.2380E-02 -1.6491E-02 -6.4153E-03  6.5046E-04
  1.7373E-02  2.4005E-02  3.1809E-02  3.7687E-02  4.9122E-02  5.6835E-02
  3.7117E-01  4.0018E-01  4.0854E-01  4.2539E-01  4.3084E-01  4.4280E-01
  4.5061E-01  4.7086E-01  4.8364E-01  4.9256E-01  5.0785E-01  5.1856E-01
  5.4394E-01  5.7767E-01  6.0149E-01  6.3104E-01  6.4368E-01  6.6022E-01
  6.7189E-01  6.9212E-01  7.0663E-01  7.1602E-01  7.2951E-01  7.6088E-01
  7.9172E-01  8.1143E-01  8.3093E-01  8.4198E-01  8.5963E-01  8.7841E-01
  8.9840E-01  9.2089E-01  9.4630E-01  9.5580E-01  9.8318E-01  1.0022E+00
  1.0130E+00  1.0495E+00  1.0583E+00  1.0699E+00  1.0844E+00  1.0992E+00
  1.1124E+00  1.1313E+00  1.1416E+00  1.1569E+00  1.1652E+00  1.1908E+00
  1.1970E+00  1.2155E+00  1.2229E+00  1.2384E+00  1.2539E+00  1.2726E+00
  1.2922E+00  1.3030E+00  1.3096E+00  1.3230E+00  1.3316E+00  1.3463E+00
  1.3665E+00  1.3764E+00  1.3847E+00  1.4128E+00  1.4237E+00  1.4302E+00
  1.4393E+00  1.4577E+00  1.4655E+00  1.4789E+00  1.4962E+00  1.5125E+00
  1.5254E+00  1.5324E+00  1.5445E+00  1.5623E+00  1.5708E+00  1.5928E+00
  1.5958E+00  1.6047E+00  1.6200E+00  1.6265E+00  1.6386E+00  1.6420E+00
  1.6591E+00  1.6699E+00  1.6804E+00  1.7044E+00  1.7219E+00  1.7377E+00
  1.7463E+00  1.7525E+00  1.7628E+00  1.7728E+00  1.7924E+00  1.8014E+00
  1.8189E+00  1.8338E+00  1.8361E+00  1.8489E+00  1.8722E+00  1.8814E+00
  1.8966E+00  1.9047E+00  1.9281E+00  1.9386E+00  1.9575E+00  1.9688E+00
  1.9830E+00  1.9884E+00  2.0029E+00  2.0172E+00  2.0227E+00  2.0364E+00
  2.0450E+00  2.0587E+00  2.0673E+00  2.0773E+00  2.0946E+00  2.1018E+00
  2.1148E+00  2.1243E+00  2.1443E+00  2.1506E+00  2.1730E+00  2.1852E+00
  2.1910E+00  2.2113E+00  2.2179E+00  2.2356E+00  2.2396E+00  2.2498E+00
  2.2571E+00  2.2690E+00  2.2833E+00  2.2927E+00
  prteigrs : nnsclo,ikpt=  200    9 max resid (incl. the buffer)=  1.04613E-05

======================================================================
 Calculating and writing out Kohn-Sham electronic Structure file
 Using conjugate gradient wavefunctions and energies (kssform=3)
 number of Gamma centered plane waves   4991
 number of Gamma centered shells    845
 number of bands    150
 maximum angular momentum components      3
 Conjugate gradient eigenvalues
   k    eigenvalues [Hartree]
   1     -0.6436 -0.5854 -0.5854 -0.5604 -0.5589 -0.5589 -0.2395 -0.2395 -0.1372
         -0.1344 -0.1287 -0.1287 -0.0445 -0.0445 -0.0336 -0.0273  0.0087  0.0087
          0.0125  0.0288  0.0288  0.0402  0.0558  0.0558  0.2755  0.3976  0.3976
          0.4131  0.4131  0.4467  0.4906  0.5019  0.5207  0.5207  0.5467  0.5467
          0.5778  0.6029  0.6029  0.6054  0.6108  0.6108  0.6612  0.6612  0.7117
          0.7430  0.7430  0.7915  0.7915  0.8147  0.8253  0.8253  0.8731  0.9263
          0.9263  0.9313  0.9543  0.9543  0.9665  0.9979  1.0277  1.0277  1.0537
          1.0553  1.0553  1.0662  1.0941  1.0941  1.1203  1.1513  1.1642  1.1642
          1.2038  1.2038  1.2226  1.2226  1.2379  1.2549  1.2554  1.2554  1.2635
          1.3020  1.3020  1.3186  1.3422  1.3794  1.3794  1.4481  1.4481  1.4669
          1.4704  1.4741  1.4741  1.4844  1.4844  1.5025  1.5072  1.5072  1.5235
          1.5537  1.5601  1.5601  1.6157  1.6248  1.6248  1.6807  1.6807  1.6956
          1.7051  1.7051  1.7095  1.7570  1.7570  1.7709  1.7873  1.7873  1.8191
          1.8284  1.8284  1.8371  1.8429  1.8429  1.8471  1.8808  1.8808  1.9088
          1.9324  1.9324  1.9535  1.9662  1.9761  1.9761  1.9806  1.9806  2.0014
          2.0206  2.0223  2.0223  2.0334  2.0365  2.0365  2.0659  2.0659  2.0721
          2.1021  2.1156  2.1156  2.1370  2.1410  2.1520
   2     -0.6368 -0.5932 -0.5844 -0.5622 -0.5602 -0.5594 -0.2422 -0.2253 -0.1394
         -0.1380 -0.1336 -0.1180 -0.0517 -0.0399 -0.0321 -0.0164 -0.0105  0.0069
          0.0100  0.0255  0.0295  0.0346  0.0581  0.0614  0.3087  0.3978  0.3994
          0.4164  0.4259  0.4532  0.4656  0.4948  0.5086  0.5155  0.5323  0.5493
          0.5655  0.5861  0.6043  0.6070  0.6167  0.6194  0.6674  0.6837  0.7132
          0.7323  0.7429  0.7557  0.7836  0.8101  0.8236  0.8533  0.8664  0.8902
          0.9127  0.9456  0.9513  0.9719  0.9813  0.9883  1.0122  1.0230  1.0460
          1.0583  1.0695  1.0781  1.1060  1.1113  1.1254  1.1401  1.1513  1.1720
          1.1816  1.1949  1.2164  1.2319  1.2462  1.2568  1.2756  1.2866  1.3027
          1.3191  1.3314  1.3491  1.3904  1.3929  1.4170  1.4321  1.4354  1.4476
          1.4562  1.4715  1.4790  1.4889  1.5019  1.5148  1.5153  1.5398  1.5458
          1.5554  1.5780  1.5900  1.6031  1.6134  1.6253  1.6333  1.6357  1.6602
          1.6757  1.6819  1.6936  1.7027  1.7210  1.7298  1.7426  1.7661  1.7721
          1.7991  1.8076  1.8155  1.8324  1.8449  1.8544  1.8702  1.8793  1.8956
          1.9006  1.9073  1.9270  1.9352  1.9451  1.9675  1.9726  1.9884  1.9967
          2.0105  2.0142  2.0339  2.0366  2.0581  2.0630  2.0776  2.0982  2.1161
          2.1207  2.1372  2.1470  2.1571  2.1675  2.1877
   3     -0.6250 -0.6068 -0.5832 -0.5631 -0.5614 -0.5601 -0.2446 -0.2073 -0.1523
         -0.1362 -0.1361 -0.1064 -0.0500 -0.0429 -0.0356 -0.0201 -0.0117 -0.0001
          0.0055  0.0243  0.0265  0.0375  0.0559  0.0653  0.3605  0.3863  0.4123
          0.4131  0.4431  0.4443  0.4698  0.4711  0.4927  0.5142  0.5205  0.5325
          0.5402  0.5854  0.5936  0.6142  0.6157  0.6346  0.6600  0.6788  0.7249
          0.7590  0.7596  0.7763  0.7770  0.8096  0.8132  0.8446  0.8461  0.8592
          0.9059  0.9307  0.9364  0.9653  0.9686  0.9881  0.9966  1.0143  1.0485
          1.0603  1.0625  1.0904  1.1030  1.1311  1.1470  1.1541  1.1748  1.1966
          1.2093  1.2102  1.2417  1.2503  1.2680  1.2894  1.2900  1.3050  1.3214
          1.3238  1.3520  1.3664  1.3795  1.3875  1.4016  1.4042  1.4326  1.4426
          1.4617  1.4657  1.4765  1.4790  1.5029  1.5109  1.5193  1.5378  1.5385
          1.5507  1.5804  1.5943  1.5990  1.6094  1.6164  1.6176  1.6352  1.6465
          1.6544  1.6545  1.6825  1.7058  1.7098  1.7218  1.7477  1.7486  1.7663
          1.7766  1.7908  1.8006  1.8007  1.8213  1.8395  1.8484  1.8724  1.8770
          1.8901  1.8913  1.9096  1.9298  1.9565  1.9645  1.9737  1.9905  1.9961
          2.0009  2.0248  2.0284  2.0484  2.0617  2.0744  2.0948  2.1187  2.1262
          2.1316  2.1350  2.1502  2.1539  2.1612  2.1720
   4     -0.6253 -0.6058 -0.5842 -0.5629 -0.5612 -0.5601 -0.2456 -0.2022 -0.1625
         -0.1353 -0.1305 -0.1062 -0.0487 -0.0423 -0.0369 -0.0153 -0.0133  0.0003
          0.0103  0.0151  0.0258  0.0428  0.0555  0.0656  0.3551  0.4019  0.4028
          0.4275  0.4316  0.4479  0.4516  0.4746  0.5036  0.5057  0.5218  0.5359
          0.5402  0.5852  0.5896  0.6147  0.6252  0.6321  0.6778  0.6990  0.6994
          0.7435  0.7461  0.7659  0.7958  0.7979  0.8117  0.8465  0.8706  0.8720
          0.8964  0.9101  0.9224  0.9612  0.9634  0.9934  1.0046  1.0288  1.0518
          1.0619  1.0849  1.1091  1.1145  1.1322  1.1383  1.1645  1.1700  1.1905
          1.1938  1.2036  1.2214  1.2411  1.2651  1.2844  1.2901  1.3130  1.3131
          1.3362  1.3408  1.3673  1.3802  1.3882  1.4085  1.4094  1.4273  1.4428
          1.4495  1.4652  1.4721  1.4816  1.4984  1.5112  1.5212  1.5239  1.5529
          1.5646  1.5902  1.5905  1.6045  1.6112  1.6233  1.6280  1.6378  1.6398
          1.6567  1.6702  1.6830  1.6834  1.6966  1.7047  1.7401  1.7439  1.7609
          1.7799  1.7931  1.8117  1.8307  1.8374  1.8484  1.8589  1.8719  1.8804
          1.8949  1.9118  1.9236  1.9381  1.9454  1.9493  1.9796  1.9893  1.9922
          1.9982  2.0202  2.0209  2.0327  2.0526  2.0661  2.0750  2.1019  2.1061
          2.1137  2.1324  2.1357  2.1427  2.1580  2.1699
   5     -0.6355 -0.6135 -0.5642 -0.5602 -0.5598 -0.5580 -0.2748 -0.1891 -0.1508
         -0.1407 -0.1389 -0.1112 -0.0447 -0.0338 -0.0306 -0.0152 -0.0038  0.0010
          0.0066  0.0089  0.0241  0.0504  0.0608  0.0642  0.3127  0.3770  0.3930
          0.3994  0.4340  0.4378  0.4639  0.4898  0.4988  0.5289  0.5465  0.5650
          0.5682  0.5707  0.6010  0.6221  0.6225  0.6326  0.6434  0.6971  0.6990
          0.7088  0.7741  0.8139  0.8209  0.8234  0.8472  0.8553  0.8693  0.8817
          0.8882  0.9126  0.9411  0.9651  0.9776  0.9794  1.0120  1.0424  1.0521
          1.0538  1.0696  1.0981  1.1164  1.1264  1.1276  1.1296  1.1644  1.1800
          1.1850  1.1980  1.2131  1.2170  1.2580  1.2581  1.2822  1.2950  1.2971
          1.3026  1.3090  1.3173  1.3305  1.3484  1.3636  1.3736  1.3802  1.4236
          1.4318  1.4566  1.4637  1.4913  1.4945  1.4975  1.5195  1.5300  1.5355
          1.5557  1.5565  1.6000  1.6131  1.6303  1.6476  1.6636  1.6649  1.6656
          1.6797  1.7027  1.7117  1.7257  1.7298  1.7627  1.7638  1.7717  1.7740
          1.8185  1.8227  1.8356  1.8453  1.8518  1.8647  1.9001  1.9061  1.9182
          1.9296  1.9572  1.9615  1.9749  1.9883  1.9964  1.9974  2.0067  2.0206
          2.0243  2.0421  2.0454  2.0551  2.0574  2.0675  2.0972  2.1072  2.1078
          2.1331  2.1358  2.1477  2.1541  2.1700  2.1736
   6     -0.6299 -0.6111 -0.5730 -0.5620 -0.5610 -0.5590 -0.2603 -0.1941 -0.1611
         -0.1361 -0.1282 -0.1160 -0.0524 -0.0387 -0.0302 -0.0187 -0.0076  0.0055
          0.0099  0.0178  0.0295  0.0420  0.0566  0.0604  0.3377  0.3868  0.3966
          0.4066  0.4379  0.4410  0.4641  0.4730  0.5022  0.5124  0.5187  0.5376
          0.5636  0.5773  0.6119  0.6235  0.6306  0.6363  0.6707  0.6878  0.6965
          0.7214  0.7371  0.7719  0.8014  0.8069  0.8413  0.8495  0.8760  0.8855
          0.9207  0.9307  0.9576  0.9635  0.9981  1.0054  1.0149  1.0243  1.0320
          1.0650  1.0678  1.0747  1.0952  1.1200  1.1385  1.1490  1.1621  1.1694
          1.1774  1.2123  1.2182  1.2218  1.2539  1.2688  1.2808  1.2904  1.2966
          1.3089  1.3220  1.3552  1.3590  1.3885  1.4072  1.4088  1.4226  1.4416
          1.4430  1.4592  1.4668  1.4790  1.4986  1.5041  1.5133  1.5145  1.5349
          1.5500  1.5741  1.5849  1.5977  1.6183  1.6284  1.6322  1.6470  1.6632
          1.6762  1.6830  1.6943  1.7077  1.7252  1.7351  1.7504  1.7576  1.7628
          1.7778  1.7814  1.8030  1.8259  1.8307  1.8565  1.8772  1.8839  1.8924
          1.9191  1.9261  1.9445  1.9504  1.9746  1.9800  1.9898  2.0020  2.0072
          2.0240  2.0391  2.0561  2.0661  2.0788  2.0927  2.0996  2.1160  2.1283
          2.1372  2.1489  2.1646  2.1724  2.1745  2.1878
   7     -0.6230 -0.6058 -0.5872 -0.5635 -0.5613 -0.5597 -0.2406 -0.2038 -0.1675
         -0.1343 -0.1216 -0.1170 -0.0533 -0.0518 -0.0267 -0.0188 -0.0074  0.0041
          0.0156  0.0235  0.0288  0.0415  0.0446  0.0610  0.3767  0.3922  0.4076
          0.4235  0.4401  0.4431  0.4467  0.4642  0.4821  0.4991  0.5043  0.5278
          0.5471  0.5762  0.6146  0.6202  0.6322  0.6469  0.6740  0.6785  0.6950
          0.7362  0.7524  0.7653  0.7872  0.8012  0.8317  0.8540  0.8786  0.8959
          0.9176  0.9284  0.9357  0.9405  0.9538  0.9732  1.0155  1.0361  1.0471
          1.0545  1.0814  1.0889  1.1281  1.1445  1.1489  1.1581  1.1777  1.1880
          1.1969  1.2199  1.2303  1.2489  1.2626  1.2793  1.2895  1.3089  1.3131
          1.3328  1.3385  1.3503  1.3724  1.3795  1.3941  1.4025  1.4058  1.4259
          1.4422  1.4447  1.4687  1.4752  1.4820  1.4984  1.5106  1.5213  1.5428
          1.5600  1.5734  1.5912  1.5959  1.6024  1.6257  1.6304  1.6421  1.6585
          1.6616  1.6703  1.6852  1.7068  1.7109  1.7194  1.7397  1.7622  1.7702
          1.7896  1.8044  1.8089  1.8216  1.8349  1.8438  1.8626  1.8768  1.8813
          1.8884  1.8961  1.9223  1.9257  1.9428  1.9572  1.9658  1.9778  2.0052
          2.0081  2.0194  2.0271  2.0435  2.0628  2.0744  2.0848  2.0897  2.1061
          2.1252  2.1311  2.1403  2.1545  2.1763  2.1858
   8     -0.6300 -0.6107 -0.5738 -0.5619 -0.5601 -0.5593 -0.2603 -0.1943 -0.1609
         -0.1366 -0.1286 -0.1143 -0.0522 -0.0379 -0.0299 -0.0219 -0.0104  0.0083
          0.0133  0.0165  0.0306  0.0398  0.0530  0.0644  0.3358  0.3938  0.3989
          0.4098  0.4274  0.4370  0.4604  0.4726  0.5045  0.5141  0.5245  0.5393
          0.5646  0.5796  0.6107  0.6220  0.6250  0.6381  0.6509  0.6901  0.7006
          0.7338  0.7459  0.7716  0.7956  0.8052  0.8434  0.8639  0.8733  0.8812
          0.9236  0.9285  0.9502  0.9721  0.9804  0.9972  1.0112  1.0253  1.0295
          1.0536  1.0668  1.0873  1.1031  1.1168  1.1327  1.1505  1.1632  1.1757
          1.2000  1.2139  1.2190  1.2299  1.2577  1.2603  1.2812  1.2877  1.3034
          1.3201  1.3291  1.3384  1.3559  1.3733  1.3960  1.4179  1.4195  1.4245
          1.4442  1.4565  1.4588  1.4695  1.4987  1.5036  1.5231  1.5297  1.5351
          1.5516  1.5782  1.5904  1.6030  1.6155  1.6240  1.6439  1.6565  1.6598
          1.6711  1.6836  1.6883  1.6997  1.7162  1.7313  1.7522  1.7551  1.7623
          1.7744  1.7915  1.8006  1.8301  1.8563  1.8638  1.8724  1.8808  1.9024
          1.9174  1.9214  1.9434  1.9477  1.9815  1.9835  1.9902  1.9989  2.0150
          2.0217  2.0268  2.0476  2.0559  2.0825  2.0884  2.0917  2.1121  2.1146
          2.1256  2.1501  2.1534  2.1752  2.1782  2.1904
   9     -0.6228 -0.6065 -0.5861 -0.5632 -0.5618 -0.5601 -0.2405 -0.2013 -0.1721
         -0.1327 -0.1222 -0.1170 -0.0548 -0.0454 -0.0324 -0.0165 -0.0064  0.0007
          0.0174  0.0240  0.0318  0.0377  0.0491  0.0568  0.3712  0.4002  0.4085
          0.4254  0.4308  0.4428  0.4506  0.4709  0.4836  0.4926  0.5078  0.5186
          0.5439  0.5777  0.6015  0.6310  0.6437  0.6602  0.6719  0.6921  0.7066
          0.7160  0.7295  0.7609  0.7917  0.8114  0.8309  0.8420  0.8596  0.8784
          0.8984  0.9209  0.9463  0.9558  0.9832  1.0022  1.0130  1.0495  1.0583
          1.0699  1.0844  1.0992  1.1124  1.1313  1.1416  1.1569  1.1652  1.1908
          1.1970  1.2155  1.2229  1.2384  1.2539  1.2726  1.2922  1.3030  1.3096
          1.3230  1.3316  1.3463  1.3665  1.3764  1.3847  1.4128  1.4237  1.4302
          1.4393  1.4577  1.4655  1.4789  1.4962  1.5125  1.5254  1.5324  1.5445
          1.5623  1.5708  1.5928  1.5958  1.6047  1.6200  1.6265  1.6386  1.6420
          1.6591  1.6699  1.6804  1.7044  1.7219  1.7377  1.7463  1.7525  1.7628
          1.7728  1.7924  1.8014  1.8189  1.8338  1.8361  1.8489  1.8722  1.8814
          1.8966  1.9047  1.9281  1.9386  1.9575  1.9688  1.9830  1.9884  2.0029
          2.0172  2.0227  2.0364  2.0450  2.0587  2.0673  2.0773  2.0946  2.1018
          2.1148  2.1243  2.1443  2.1506  2.1730  2.1852
 Test on the normalization of the wavefunctions
  min sum_G |a(n,k,G)| =  1.000000
  max sum_G |a(n,k,G)| =  1.000000
 Test on the orthogonalization of the wavefunctions
  min sum_G a(n,k,G)a(n',k,G) =  0.000000
  max sum_G a(n,k,G)a(n',k,G) =  0.000000

================================================================================

 ----iterations are completed or convergence reached----

 Mean square residual over all n,k,spin=   5.0612E-07; max=  2.3242E-04
   0.0000  0.0000  0.0000    1  5.89053E-05 kpt; spin; max resid(k); each band:
  9.95E-14 1.41E-13 3.24E-13 6.33E-13 2.49E-13 3.28E-13 5.22E-13 8.69E-14
  6.71E-14 6.30E-14 6.33E-13 1.38E-13 7.58E-13 9.02E-13 8.08E-13 4.92E-14
  6.84E-13 8.63E-13 6.08E-13 3.84E-13 7.18E-13 6.47E-13 5.56E-13 6.88E-13
  7.47E-13 1.70E-13 1.50E-13 1.45E-13 1.89E-13 8.22E-14 3.20E-13 2.17E-13
  1.59E-13 2.16E-13 1.79E-13 1.65E-13 3.51E-13 1.90E-13 1.88E-13 7.83E-14
  8.31E-14 1.53E-13 1.14E-13 1.72E-13 1.59E-13 1.19E-13 1.98E-13 2.21E-13
  2.07E-13 9.30E-13 1.21E-13 1.21E-13 1.85E-13 1.38E-13 1.08E-13 2.12E-13
  1.53E-13 1.34E-13 5.98E-14 2.67E-13 4.28E-13 1.08E-13 2.58E-13 5.32E-13
  2.68E-13 1.63E-13 4.38E-13 2.30E-13 5.43E-13 1.45E-13 3.03E-13 1.63E-13
  4.95E-13 4.46E-13 2.96E-13 3.74E-13 1.62E-13 4.00E-13 4.87E-13 6.78E-13
  4.18E-14 5.95E-14 6.21E-14 5.32E-14 8.12E-14 6.71E-14 8.78E-13 1.28E-13
  1.11E-13 1.97E-13 1.17E-13 1.37E-13 8.97E-14 4.26E-13 5.14E-13 1.85E-13
  3.59E-13 2.54E-13 3.91E-13 3.90E-13 3.24E-13 1.98E-13 1.66E-13 6.57E-13
  2.73E-13 5.91E-13 4.04E-13 1.27E-13 6.35E-13 2.91E-13 1.74E-13 2.79E-13
  3.22E-13 2.11E-13 8.76E-13 7.58E-13 2.03E-13 5.89E-13 4.86E-13 6.74E-13
  2.72E-13 6.84E-13 5.92E-13 6.59E-13 5.29E-13 3.73E-13 6.93E-13 6.39E-13
  9.33E-13 6.72E-13 5.52E-13 7.17E-13 8.92E-13 6.03E-13 9.19E-13 4.64E-13
  3.66E-13 7.76E-13 3.40E-13 4.73E-13 4.84E-13 8.18E-13 2.76E-13 5.23E-13
  4.40E-13 5.59E-13 9.85E-13 5.77E-13 6.15E-13 7.28E-13 3.12E-12 2.36E-11
  1.62E-12 3.45E-11 6.28E-08 1.45E-09 3.67E-07 2.40E-05 5.34E-07 5.89E-05
   0.2500  0.0000  0.0000    1  2.32424E-04 kpt; spin; max resid(k); each band:
  1.06E-13 2.02E-13 2.75E-13 4.47E-13 3.53E-13 4.42E-13 6.36E-13 4.95E-14
  6.81E-14 1.03E-13 8.74E-14 8.98E-13 5.91E-14 4.20E-13 9.26E-13 5.20E-13
  9.49E-13 5.29E-13 9.82E-13 7.32E-13 6.09E-13 3.32E-14 4.49E-13 4.31E-13
  2.18E-13 1.26E-13 1.79E-13 1.59E-13 2.66E-13 1.81E-13 1.56E-13 1.43E-13
  2.42E-13 3.27E-13 1.42E-13 1.67E-13 4.07E-13 2.04E-13 1.65E-13 2.93E-13
  1.26E-13 2.07E-13 1.90E-13 1.16E-13 1.87E-13 9.57E-14 8.62E-14 1.07E-13
  9.93E-14 1.08E-13 1.09E-13 1.22E-13 1.36E-13 1.17E-13 8.95E-14 1.68E-13
  2.06E-13 1.30E-13 8.79E-14 1.23E-13 1.56E-13 3.42E-13 1.34E-13 3.13E-13
  2.76E-13 1.88E-13 1.24E-13 1.80E-13 2.47E-13 1.59E-13 1.88E-13 2.24E-13
  4.10E-13 1.49E-13 5.55E-13 1.20E-13 4.00E-13 3.79E-13 2.74E-13 2.78E-13
  7.49E-13 4.26E-13 8.12E-13 7.45E-13 8.25E-13 6.59E-14 6.76E-14 6.35E-14
  1.15E-13 1.34E-13 1.07E-13 2.34E-13 2.21E-13 2.38E-13 1.39E-13 5.41E-13
  1.96E-13 7.15E-14 3.02E-13 4.48E-13 2.96E-13 7.43E-14 3.59E-13 6.61E-13
  5.27E-13 8.99E-14 2.10E-13 9.22E-13 6.07E-13 9.08E-13 2.99E-13 9.52E-13
  4.88E-13 4.86E-13 3.96E-13 1.89E-13 2.11E-13 7.14E-13 5.69E-13 6.39E-13
  3.56E-13 2.02E-13 3.42E-13 6.07E-13 2.01E-13 8.46E-13 2.94E-13 4.07E-13
  2.42E-13 9.41E-13 2.42E-13 6.95E-13 3.58E-13 2.93E-13 7.81E-13 3.58E-13
  6.33E-13 2.82E-13 5.91E-13 3.70E-13 6.25E-13 3.55E-13 4.37E-13 7.07E-13
  5.28E-13 9.27E-13 6.86E-13 6.04E-13 8.09E-13 8.10E-13 4.27E-13 9.56E-12
  1.84E-10 1.29E-11 5.31E-10 1.60E-10 1.85E-07 1.24E-05 9.61E-06 2.32E-04
   0.5000  0.0000  0.0000    1  5.80323E-05 kpt; spin; max resid(k); each band:
  2.90E-13 2.29E-13 5.59E-13 3.16E-13 5.02E-13 4.09E-13 9.00E-13 7.81E-13
  8.02E-14 8.22E-14 9.98E-13 5.25E-13 1.01E-13 6.73E-14 8.70E-13 7.81E-13
  7.78E-13 8.26E-13 4.64E-13 5.19E-13 5.18E-13 4.19E-13 9.38E-13 3.29E-13
  2.89E-13 2.94E-13 1.90E-13 2.00E-13 1.29E-13 3.13E-13 2.79E-13 2.38E-13
  3.36E-13 1.57E-13 3.56E-13 1.83E-13 1.69E-13 1.39E-13 1.62E-13 1.48E-13
  1.34E-13 1.05E-13 1.06E-13 1.60E-13 9.34E-14 1.28E-13 9.46E-13 1.79E-13
  6.80E-14 2.17E-13 1.61E-13 1.01E-13 1.99E-13 2.58E-13 2.51E-13 1.02E-13
  2.02E-13 1.58E-13 1.27E-13 1.16E-13 1.69E-13 1.76E-13 5.91E-14 1.95E-13
  1.55E-13 3.50E-13 2.42E-13 3.20E-13 5.10E-13 3.71E-13 4.03E-13 2.00E-13
  3.29E-13 3.11E-13 1.49E-13 4.64E-13 4.11E-13 4.62E-13 4.37E-13 5.06E-13
  7.44E-13 5.94E-13 5.22E-14 6.69E-13 6.54E-13 5.61E-14 8.25E-13 9.81E-13
  9.21E-14 6.75E-14 3.14E-13 1.02E-13 8.85E-14 1.46E-13 1.80E-13 2.37E-13
  2.50E-13 6.46E-13 3.14E-13 1.90E-13 6.21E-13 4.93E-13 8.08E-13 9.02E-13
  8.69E-14 8.78E-13 7.65E-13 9.81E-13 4.62E-13 8.17E-13 1.75E-13 2.02E-13
  2.86E-13 4.62E-13 3.16E-13 6.27E-13 8.50E-14 6.66E-13 7.63E-13 1.22E-13
  1.01E-13 4.15E-13 7.46E-13 4.47E-13 5.64E-13 6.76E-13 7.89E-13 9.73E-13
  1.92E-13 3.99E-13 4.65E-13 4.81E-13 2.75E-13 6.46E-13 3.98E-13 8.02E-13
  8.98E-13 8.89E-13 6.55E-13 4.71E-13 6.34E-13 5.83E-13 6.75E-13 4.73E-13
  5.90E-13 8.83E-13 5.89E-13 7.32E-13 6.73E-13 5.55E-13 1.74E-12 2.10E-11
  1.75E-10 9.03E-10 7.41E-09 4.47E-08 5.64E-08 5.11E-06 5.80E-05 5.69E-05
   0.2500  0.2500  0.0000    1  1.75943E-05 kpt; spin; max resid(k); each band:
  1.63E-13 3.27E-13 3.07E-13 2.09E-13 4.16E-13 5.67E-13 4.91E-14 1.05E-13
  5.50E-14 9.04E-13 7.00E-14 7.32E-13 9.35E-13 7.86E-13 4.76E-14 8.46E-13
  8.66E-13 8.13E-13 8.86E-13 6.12E-13 5.01E-13 4.09E-13 4.51E-13 3.27E-13
  2.07E-13 2.08E-13 2.80E-13 2.62E-13 1.77E-13 2.64E-13 1.54E-13 1.32E-13
  2.73E-13 7.74E-14 2.32E-13 3.21E-13 1.72E-13 1.12E-13 1.63E-13 1.32E-13
  2.78E-13 1.48E-13 9.72E-14 1.53E-13 1.13E-13 1.26E-13 1.34E-13 8.17E-14
  1.30E-13 9.29E-14 1.50E-13 1.16E-13 1.07E-13 1.41E-13 1.30E-13 9.61E-14
  1.91E-13 1.38E-13 2.18E-13 7.75E-14 1.48E-13 1.96E-13 1.45E-13 1.88E-13
  1.17E-13 2.80E-13 3.18E-13 3.44E-13 2.54E-13 1.56E-13 1.68E-13 4.26E-13
  1.48E-13 3.57E-13 6.83E-13 5.35E-13 6.21E-13 4.24E-13 3.24E-13 9.34E-13
  5.36E-14 4.42E-13 8.23E-13 7.98E-13 4.14E-14 4.45E-14 4.76E-14 1.07E-13
  8.19E-14 9.49E-14 5.72E-13 1.99E-13 1.94E-13 2.03E-13 1.31E-13 2.83E-13
[...]
   0.92242   0.96119   0.96337   0.99342   1.00464   1.02884   1.05184   1.06187
   1.08493   1.10908   1.11454   1.13218   1.13827   1.16447   1.16996   1.19053
   1.19375   1.20356   1.22142   1.24105   1.26515   1.28438   1.29014   1.31302
   1.31314   1.33622   1.34077   1.36729   1.38015   1.38823   1.40852   1.40940
   1.42733   1.44279   1.44946   1.46520   1.47206   1.48161   1.49843   1.51117
   1.52117   1.52390   1.55291   1.56459   1.59020   1.59049   1.60454   1.61122
   1.62328   1.62795   1.63784   1.63979   1.65672   1.67022   1.68300   1.68344
   1.69656   1.70471   1.74006   1.74393   1.76088   1.77985   1.79309   1.81174
   1.83074   1.83738   1.84836   1.85894   1.87194   1.88037   1.89493   1.91178
   1.92361   1.93809   1.94541   1.94925   1.97962   1.98929   1.99215   1.99818
   2.02022   2.02094   2.03273   2.05257   2.06614   2.07503   2.10195   2.10613
   2.11373   2.13236   2.13573   2.14266   2.15799   2.16985   2.17275   2.18786
   2.20266   2.22678   2.23558   2.23959   2.25127   2.26913   2.28022   2.29113
 kpt#   5, nband=160, wtk=  0.04167, kpt=  0.0000  0.0000  0.3333 (reduced coord)
  -0.63546  -0.61352  -0.56424  -0.56025  -0.55979  -0.55802  -0.27476  -0.18906
  -0.15080  -0.14069  -0.13886  -0.11122  -0.04470  -0.03376  -0.03055  -0.01517
  -0.00381   0.00095   0.00664   0.00892   0.02407   0.05038   0.06075   0.06415
   0.31274   0.37703   0.39304   0.39937   0.43404   0.43776   0.46387   0.48978
   0.49884   0.52892   0.54655   0.56500   0.56818   0.57067   0.60096   0.62207
   0.62253   0.63256   0.64339   0.69705   0.69897   0.70881   0.77409   0.81391
   0.82089   0.82336   0.84717   0.85527   0.86927   0.88166   0.88816   0.91259
   0.94113   0.96513   0.97758   0.97942   1.01201   1.04244   1.05212   1.05383
   1.06962   1.09807   1.11637   1.12635   1.12756   1.12965   1.16442   1.17999
   1.18499   1.19802   1.21307   1.21703   1.25796   1.25811   1.28223   1.29505
   1.29715   1.30256   1.30901   1.31730   1.33050   1.34843   1.36361   1.37357
   1.38017   1.42356   1.43178   1.45660   1.46373   1.49132   1.49452   1.49747
   1.51948   1.53002   1.53554   1.55574   1.55648   1.60003   1.61308   1.63030
   1.64758   1.66360   1.66495   1.66565   1.67969   1.70265   1.71172   1.72571
   1.72979   1.76269   1.76383   1.77174   1.77397   1.81850   1.82275   1.83555
   1.84533   1.85180   1.86473   1.90014   1.90610   1.91817   1.92958   1.95718
   1.96146   1.97495   1.98827   1.99639   1.99742   2.00673   2.02063   2.02431
   2.04211   2.04540   2.05505   2.05739   2.06747   2.09719   2.10725   2.10779
   2.13312   2.13579   2.14769   2.15411   2.16995   2.17360   2.18270   2.18566
   2.20479   2.22288   2.22969   2.23706   2.23966   2.25083   2.25393   2.28231
 kpt#   6, nband=160, wtk=  0.12500, kpt=  0.2500  0.0000  0.3333 (reduced coord)
  -0.62991  -0.61105  -0.57304  -0.56200  -0.56103  -0.55896  -0.26026  -0.19412
  -0.16107  -0.13608  -0.12816  -0.11602  -0.05238  -0.03866  -0.03018  -0.01869
  -0.00760   0.00549   0.00987   0.01783   0.02952   0.04204   0.05660   0.06041
   0.33766   0.38675   0.39663   0.40658   0.43792   0.44097   0.46410   0.47295
   0.50220   0.51236   0.51871   0.53763   0.56357   0.57731   0.61193   0.62350
   0.63063   0.63633   0.67068   0.68784   0.69645   0.72144   0.73713   0.77186
   0.80137   0.80692   0.84127   0.84951   0.87602   0.88554   0.92073   0.93070
   0.95764   0.96354   0.99811   1.00543   1.01485   1.02428   1.03198   1.06503
   1.06776   1.07466   1.09521   1.11999   1.13855   1.14899   1.16209   1.16936
   1.17739   1.21232   1.21820   1.22183   1.25388   1.26875   1.28082   1.29043
   1.29659   1.30886   1.32202   1.35520   1.35901   1.38853   1.40719   1.40880
   1.42264   1.44156   1.44299   1.45924   1.46678   1.47903   1.49862   1.50409
   1.51332   1.51449   1.53490   1.55002   1.57408   1.58485   1.59774   1.61834
   1.62837   1.63223   1.64698   1.66320   1.67623   1.68296   1.69432   1.70767
   1.72522   1.73515   1.75039   1.75762   1.76282   1.77776   1.78139   1.80302
   1.82592   1.83074   1.85652   1.87725   1.88388   1.89236   1.91914   1.92607
   1.94448   1.95042   1.97459   1.98000   1.98984   2.00204   2.00723   2.02404
   2.03913   2.05613   2.06613   2.07883   2.09269   2.09963   2.11604   2.12829
   2.13716   2.14887   2.16461   2.17237   2.17451   2.18779   2.19476   2.20288
   2.20492   2.20979   2.23721   2.24073   2.25376   2.26371   2.28980   2.30265
 kpt#   7, nband=160, wtk=  0.12500, kpt=  0.5000  0.0000  0.3333 (reduced coord)
  -0.62295  -0.60577  -0.58716  -0.56352  -0.56133  -0.55974  -0.24064  -0.20377
  -0.16750  -0.13431  -0.12161  -0.11697  -0.05329  -0.05176  -0.02672  -0.01877
  -0.00744   0.00413   0.01556   0.02348   0.02879   0.04150   0.04460   0.06095
   0.37668   0.39215   0.40764   0.42347   0.44012   0.44313   0.44670   0.46418
   0.48209   0.49912   0.50432   0.52777   0.54708   0.57620   0.61460   0.62019
   0.63224   0.64693   0.67397   0.67848   0.69501   0.73622   0.75242   0.76528
   0.78717   0.80120   0.83166   0.85396   0.87859   0.89593   0.91763   0.92835
   0.93568   0.94049   0.95378   0.97318   1.01554   1.03612   1.04707   1.05450
   1.08138   1.08889   1.12814   1.14453   1.14889   1.15814   1.17770   1.18805
   1.19693   1.21987   1.23027   1.24895   1.26258   1.27929   1.28950   1.30892
   1.31315   1.33278   1.33854   1.35034   1.37240   1.37946   1.39409   1.40254
   1.40578   1.42590   1.44225   1.44468   1.46868   1.47520   1.48203   1.49839
   1.51061   1.52131   1.54281   1.56001   1.57337   1.59116   1.59588   1.60245
   1.62570   1.63043   1.64214   1.65854   1.66162   1.67025   1.68522   1.70677
   1.71086   1.71939   1.73972   1.76220   1.77016   1.78955   1.80439   1.80887
   1.82165   1.83495   1.84378   1.86261   1.87680   1.88133   1.88841   1.89608
   1.92234   1.92574   1.94284   1.95718   1.96583   1.97780   2.00516   2.00808
   2.01944   2.02714   2.04355   2.06280   2.07440   2.08480   2.08968   2.10615
   2.12521   2.13114   2.14030   2.15447   2.17633   2.18577   2.20468   2.21072
   2.21979   2.22080   2.24547   2.25990   2.27717   2.28527   2.28989   2.30213
 kpt#   8, nband=160, wtk=  0.12500, kpt= -0.2500  0.0000  0.3333 (reduced coord)
  -0.63002  -0.61073  -0.57384  -0.56194  -0.56014  -0.55930  -0.26028  -0.19430
  -0.16094  -0.13663  -0.12859  -0.11430  -0.05217  -0.03790  -0.02989  -0.02186
  -0.01041   0.00829   0.01327   0.01652   0.03056   0.03977   0.05303   0.06441
   0.33584   0.39385   0.39892   0.40981   0.42736   0.43705   0.46042   0.47262
   0.50448   0.51408   0.52454   0.53933   0.56459   0.57964   0.61066   0.62197
   0.62500   0.63814   0.65093   0.69010   0.70058   0.73378   0.74594   0.77156
   0.79557   0.80523   0.84343   0.86392   0.87332   0.88124   0.92360   0.92851
   0.95022   0.97211   0.98045   0.99723   1.01124   1.02527   1.02952   1.05358
   1.06680   1.08727   1.10306   1.11681   1.13268   1.15053   1.16317   1.17566
   1.20002   1.21386   1.21899   1.22995   1.25770   1.26026   1.28116   1.28773
   1.30338   1.32007   1.32913   1.33843   1.35587   1.37333   1.39600   1.41788
   1.41948   1.42454   1.44417   1.45654   1.45883   1.46952   1.49867   1.50363
   1.52311   1.52972   1.53510   1.55155   1.57820   1.59042   1.60297   1.61552
   1.62400   1.64387   1.65653   1.65977   1.67107   1.68364   1.68835   1.69968
   1.71615   1.73126   1.75220   1.75510   1.76231   1.77440   1.79145   1.80064
   1.83015   1.85631   1.86377   1.87242   1.88080   1.90242   1.91735   1.92139
   1.94337   1.94772   1.98152   1.98354   1.99016   1.99887   2.01498   2.02171
   2.02677   2.04757   2.05588   2.08254   2.08836   2.09168   2.11212   2.11459
   2.12557   2.15012   2.15337   2.17519   2.17823   2.19035   2.20081   2.21103
   2.21872   2.23003   2.23902   2.24075   2.25079   2.25992   2.28562   2.29035
 kpt#   9, nband=160, wtk=  0.25000, kpt=  0.2500  0.2500  0.3333 (reduced coord)
  -0.62280  -0.60650  -0.58611  -0.56320  -0.56181  -0.56009  -0.24048  -0.20127
  -0.17209  -0.13268  -0.12217  -0.11703  -0.05481  -0.04544  -0.03238  -0.01649
  -0.00642   0.00065   0.01737   0.02400   0.03181   0.03769   0.04912   0.05683
   0.37117   0.40018   0.40854   0.42539   0.43084   0.44280   0.45061   0.47086
   0.48364   0.49256   0.50785   0.51856   0.54394   0.57767   0.60149   0.63104
   0.64368   0.66022   0.67189   0.69212   0.70663   0.71602   0.72951   0.76088
   0.79172   0.81143   0.83093   0.84198   0.85963   0.87841   0.89840   0.92089
   0.94630   0.95580   0.98318   1.00215   1.01298   1.04951   1.05826   1.06991
   1.08440   1.09918   1.11245   1.13131   1.14164   1.15688   1.16519   1.19085
   1.19700   1.21554   1.22286   1.23844   1.25387   1.27260   1.29220   1.30298
   1.30965   1.32298   1.33156   1.34625   1.36652   1.37640   1.38471   1.41277
   1.42370   1.43021   1.43926   1.45770   1.46551   1.47892   1.49623   1.51250
   1.52539   1.53236   1.54450   1.56232   1.57078   1.59278   1.59576   1.60468
   1.61995   1.62650   1.63857   1.64197   1.65908   1.66990   1.68038   1.70444
   1.72191   1.73772   1.74631   1.75250   1.76277   1.77283   1.79240   1.80140
   1.81886   1.83376   1.83613   1.84894   1.87224   1.88137   1.89658   1.90470
   1.92807   1.93859   1.95747   1.96881   1.98304   1.98838   2.00289   2.01716
   2.02273   2.03640   2.04501   2.05868   2.06728   2.07731   2.09456   2.10179
   2.11475   2.12427   2.14428   2.15065   2.17300   2.18523   2.19101   2.21127
   2.21786   2.23562   2.23961   2.24978   2.25708   2.26897   2.28326   2.29266
 Total charge density [el/Bohr^3]
,     Maximum=    9.6995E-01  at reduced coord.    0.1111    0.6889    0.9167
,Next maximum=    9.6995E-01  at reduced coord.    0.6889    0.1111    0.7500
,     Minimum=    1.2608E-03  at reduced coord.    0.0000    0.3111    0.1667
,Next minimum=    1.2608E-03  at reduced coord.    0.3111    0.0000    0.5000
,  Integrated=    4.8000E+01

== END DATASET(S) ==============================================================
================================================================================
  
 -outvars: echo values of variables after computation  --------
            acell      9.2843000799E+00  9.2843000799E+00  1.0213270550E+01 Bohr
              amu      2.80855000E+01  1.59994000E+01
           diemac      4.00000000E+00
             ecut      2.40000000E+01 Hartree
           etotal1    -1.1317576756E+02
            fcart1    -8.0188366169E-04  1.3889032438E-03 -1.9274705282E-19
                      -8.0188366169E-04 -1.3889032438E-03 -1.9274705289E-19
                       1.6037673234E-03 -0.0000000000E+00 -1.9274705289E-19
                      -6.4087294803E-03 -6.8176471871E-04 -8.2009270986E-03
                       2.6139391744E-03  5.8910048953E-03 -8.2009270986E-03
                       3.7947903060E-03 -5.2092401766E-03 -8.2009270986E-03
                       3.7947903060E-03  5.2092401766E-03  8.2009270986E-03
                      -6.4087294803E-03  6.8176471871E-04  8.2009270986E-03
                       2.6139391744E-03 -5.8910048953E-03  8.2009270986E-03
           getden1          0
           getden2         -1
             iscf1          7
             iscf2         -2
           istwfk        1    0    1    0    0    0    0    0    0
           jdtset        1    2
              kpt      0.00000000E+00  0.00000000E+00  0.00000000E+00
                       2.50000000E-01  0.00000000E+00  0.00000000E+00
                       5.00000000E-01  0.00000000E+00  0.00000000E+00
                       2.50000000E-01  2.50000000E-01  0.00000000E+00
                       0.00000000E+00  0.00000000E+00  3.33333333E-01
                       2.50000000E-01  0.00000000E+00  3.33333333E-01
                       5.00000000E-01  0.00000000E+00  3.33333333E-01
                      -2.50000000E-01  0.00000000E+00  3.33333333E-01
                       2.50000000E-01  2.50000000E-01  3.33333333E-01
          kptrlen      3.06398116E+01
         kptrlatt      4  0  0   0  4  0   0  0  3
          kssform1          1
          kssform2          3
P           mkmem           3
            natom           9
            nband1         28
            nband2        160
           nbdbuf1          0
           nbdbuf2         10
           ndtset           2
            ngfft          45      45      48
             nkpt           9
            nstep         200
             nsym           6
           ntypat           2
              occ      2.000000  2.000000  2.000000  2.000000  2.000000  2.000000
                       2.000000  2.000000  2.000000  2.000000  2.000000  2.000000
                       2.000000  2.000000  2.000000  2.000000  2.000000  2.000000
                       2.000000  2.000000  2.000000  2.000000  2.000000  2.000000
                       0.000000  0.000000  0.000000  0.000000
            rprim      5.0000000000E-01 -8.6602540378E-01  0.0000000000E+00
                       5.0000000000E-01  8.6602540378E-01  0.0000000000E+00
                       0.0000000000E+00  0.0000000000E+00  1.0000000000E+00
          spgroup         154
           strten1     1.2666901303E-03  1.2666901304E-03  1.2184933974E-03
                       0.0000000000E+00  0.0000000000E+00  0.0000000000E+00
           symrel      1  0  0   0  1  0   0  0  1       1  0  0  -1 -1  0   0  0 -1
                       0  1  0  -1 -1  0   0  0  1       0  1  0   1  0  0   0  0 -1
                      -1 -1  0   1  0  0   0  0  1      -1 -1  0   0  1  0   0  0 -1
            tnons      0.0000000  0.0000000  0.0000000     0.0000000  0.0000000  0.0000000
                       0.0000000  0.0000000 -0.3333333     0.0000000  0.0000000 -0.3333333
                       0.0000000  0.0000000  0.3333333     0.0000000  0.0000000  0.3333333
           tolvrs1     1.00000000E-08
           tolvrs2     0.00000000E+00
           tolwfr1     0.00000000E+00
           tolwfr2     1.00000000E-12
            typat      1  1  1  2  2  2  2  2  2
              wtk        0.02083    0.12500    0.06250    0.12500    0.04167    0.12500
                         0.12500    0.12500    0.25000
           xangst      1.1422818000E+00 -1.9784901142E+00  0.0000000000E+00
                       1.1422818000E+00  1.9784901142E+00  3.6030866667E+00
                      -2.2845636000E+00  0.0000000000E+00  1.8015433333E+00
                       1.6876292400E+00 -6.0843889532E-01  6.4855560000E-01
                      -1.3707381600E+00 -1.1573103463E+00  2.4500989333E+00
                      -3.1689108000E-01  1.7657492417E+00  4.2516422667E+00
                      -3.1689108000E-01 -1.7657492417E+00 -6.4855560000E-01
                       1.6876292400E+00  6.0843889532E-01  2.9545310667E+00
                      -1.3707381600E+00  1.1573103463E+00  1.1529877333E+00
            xcart      2.1585997686E+00 -3.7388044724E+00  0.0000000000E+00
                       2.1585997686E+00  3.7388044724E+00  6.8088470331E+00
                      -4.3171995372E+00  0.0000000000E+00  3.4044235165E+00
                       3.1891570774E+00 -1.1497828807E+00  1.2255924659E+00
                      -2.5903197223E+00 -2.1869996053E+00  4.6300159825E+00
                      -5.9883735515E-01  3.3367824861E+00  8.0344394990E+00
                      -5.9883735515E-01 -3.3367824861E+00 -1.2255924659E+00
                       3.1891570774E+00  1.1497828807E+00  5.5832545671E+00
                      -2.5903197223E+00  2.1869996053E+00  2.1788310506E+00
             xred      4.6500000000E-01  0.0000000000E+00  0.0000000000E+00
                       0.0000000000E+00  4.6500000000E-01  6.6666666667E-01
                      -4.6500000000E-01 -4.6500000000E-01  3.3333333333E-01
                       4.1500000000E-01  2.7200000000E-01  1.2000000000E-01
                      -1.4300000000E-01 -4.1500000000E-01  4.5333333333E-01
                      -2.7200000000E-01  1.4300000000E-01  7.8666666667E-01
                       1.4300000000E-01 -2.7200000000E-01 -1.2000000000E-01
                       2.7200000000E-01  4.1500000000E-01  5.4666666667E-01
                      -4.1500000000E-01 -1.4300000000E-01  2.1333333333E-01
            znucl       14.00000    8.00000

================================================================================


- Timing analysis has been suppressed with timopt=0



================================================================================

 Suggested references for the acknowledgment of ABINIT usage.

 The users of ABINIT have little formal obligations with respect to the ABINIT group
 (those specified in the GNU General Public License, http://www.gnu.org/copyleft/gpl.txt).
 However, it is common practice in the scientific literature,
 to acknowledge the efforts of people that have made the research possible.
 In this spirit, please find below suggested citations of work written by ABINIT developers,
 corresponding to implementations inside of ABINIT that you have used in the present run.
 Note also that it will be of great value to readers of publications presenting these results,
 to read papers enabling them to understand the theoretical formalism and details
 of the ABINIT implementation.
 For information on why they are suggested, see also http://www.abinit.org/about/?text=acknowledgments.

 [1] ABINIT : First-principles approach of materials and nanosystem properties.
 X. Gonze, B. Amadon, P.-M. Anglade, J.-M. Beuken, F. Bottin, P. Boulanger, F. Bruneval,
 D. Caliste, R. Caracas, M. Cote, T. Deutsch, L. Genovese, Ph. Ghosez, M. Giantomassi
 S. Goedecker, D.R. Hamann, P. Hermet, F. Jollet, G. Jomard, S. Leroux, M. Mancini, S. Mazevet,
 M.J.T. Oliveira, G. Onida, Y. Pouillon, T. Rangel, G.-M. Rignanese, D. Sangalli, R. Shaltaf,
 M. Torrent, M.J. Verstraete, G. Zerah, J.W. Zwanziger
 Computer Phys. Comm. 180, 2582-2615 (2009).
 Comment : the third generic paper describing the ABINIT project.
 Note that a version of this paper, that is not formatted for Computer Phys. Comm. 
 is available at http://www.abinit.org/about/ABINIT_CPC_v10.pdf .
 The licence allows the authors to put it on the Web.

 [2] A brief introduction to the ABINIT software package.
 X. Gonze, G.-M. Rignanese, M. Verstraete, J.-M. Beuken, Y. Pouillon, R. Caracas, F. Jollet,
 M. Torrent, G. Zerah, M. Mikami, Ph. Ghosez, M. Veithen, J.-Y. Raty, V. Olevano, F. Bruneval,
 L. Reining, R. Godby, G. Onida, D.R. Hamann, and D.C. Allan.
 Z. Kristallogr. 220, 558-562 (2005).
 Comment : the second generic paper describing the ABINIT project. Note that this paper
 should be cited especially if you are using the GW part of ABINIT, as several authors
 of this part are not in the list of authors of the first or third paper.
 The .pdf of the latter paper is available at http://www.abinit.org/about/zfk_0505-06_558-562.pdf.
 Note that it should not redistributed (Copyright by Oldenburg Wissenshaftverlag,
 the licence allows the authors to put it on the Web).


 And optionally :

 [3] First-principles computation of material properties : the ABINIT software project. 
 X. Gonze, J.-M. Beuken, R. Caracas, F. Detraux, M. Fuchs, G.-M. Rignanese, L. Sindic,
 M. Verstraete, G. Zerah, F. Jollet, M. Torrent, A. Roy, M. Mikami, Ph. Ghosez, J.-Y. Raty, D.C. Allan.
 Computational Materials Science 25, 478-492 (2002). http://dx.doi.org/10.1016/S0927-0256(02)00325-7
 Comment : the original paper describing the ABINIT project.

 [4] Fast radix 2, 3, 4 and 5 kernels for Fast Fourier Transformations
 on computers with overlapping multiply-add instructions.
 S. Goedecker, SIAM J. on Scientific Computing 18, 1605 (1997).
-
- Proc.   0 individual time (sec): cpu=        209.0  wall=        209.0

================================================================================

 Calculation completed.
.Delivered    0 WARNINGs and   5 COMMENTs to log file.
+Overall time at end (sec) : cpu=        626.9  wall=        626.9
