
 **** DERIVATIVE DATABASE ****    
+DDB, Version number    100401

 DDB for AlAs, Raman tensor, Non-linear optical susceptibilities and EO tensor                                                                                                                                                                                           

    usepaw         0
     natom         2
      nkpt        16
    nsppol         1
      nsym        24
    ntypat         2
    occopt         1
     nband         4
     acell  0.10616530850000D+02  0.10616530850000D+02  0.10616530850000D+02
       amu  0.26981539000000D+02  0.74921590000000D+02
   dilatmx  0.10000000000000D+01
      ecut  0.30000000000000D+01
    ecutsm  0.00000000000000D+00
     intxc         0
      iscf         5
       ixc         3
       kpt -0.25000000000000D+00  0.50000000000000D+00  0.00000000000000D+00
            0.50000000000000D+00 -0.25000000000000D+00  0.00000000000000D+00
           -0.25000000000000D+00 -0.25000000000000D+00  0.25000000000000D+00
           -0.25000000000000D+00  0.00000000000000D+00  0.00000000000000D+00
           -0.25000000000000D+00  0.25000000000000D+00  0.25000000000000D+00
            0.50000000000000D+00  0.50000000000000D+00  0.25000000000000D+00
           -0.25000000000000D+00  0.50000000000000D+00  0.50000000000000D+00
            0.00000000000000D+00 -0.25000000000000D+00  0.00000000000000D+00
            0.25000000000000D+00 -0.25000000000000D+00  0.25000000000000D+00
            0.50000000000000D+00 -0.25000000000000D+00  0.50000000000000D+00
           -0.25000000000000D+00 -0.25000000000000D+00 -0.25000000000000D+00
            0.50000000000000D+00  0.00000000000000D+00  0.25000000000000D+00
           -0.25000000000000D+00  0.00000000000000D+00  0.50000000000000D+00
            0.00000000000000D+00  0.50000000000000D+00  0.25000000000000D+00
            0.00000000000000D+00 -0.25000000000000D+00  0.50000000000000D+00
            0.00000000000000D+00  0.00000000000000D+00  0.25000000000000D+00
    kptnrm  0.10000000000000D+01
     ngfft        12   12   12
    nspden         1
   nspinor         1
       occ  0.20000000000000D+01  0.20000000000000D+01  0.20000000000000D+01
            0.20000000000000D+01
     rprim  0.00000000000000D+00  0.50000000000000D+00  0.50000000000000D+00
            0.50000000000000D+00  0.00000000000000D+00  0.50000000000000D+00
            0.50000000000000D+00  0.50000000000000D+00  0.00000000000000D+00
     sciss  0.00000000000000D+00
    spinat  0.00000000000000D+00  0.00000000000000D+00  0.00000000000000D+00
            0.00000000000000D+00  0.00000000000000D+00  0.00000000000000D+00
    symafm         1    1    1    1    1    1    1    1    1    1    1    1
                   1    1    1    1    1    1    1    1    1    1    1    1
    symrel         1    0    0    0    1    0    0    0    1
                   0   -1    1    0   -1    0    1   -1    0
                  -1    0    0   -1    0    1   -1    1    0
                   0    1   -1    1    0   -1    0    0   -1
                  -1    0    0   -1    1    0   -1    0    1
                   0   -1    1    1   -1    0    0   -1    0
                   1    0    0    0    0    1    0    1    0
                   0    1   -1    0    0   -1    1    0   -1
                  -1    0    1   -1    1    0   -1    0    0
                   0   -1    0    1   -1    0    0   -1    1
                   1    0   -1    0    0   -1    0    1   -1
                   0    1    0    0    0    1    1    0    0
                   1    0   -1    0    1   -1    0    0   -1
                   0   -1    0    0   -1    1    1   -1    0
                  -1    0    1   -1    0    0   -1    1    0
                   0    1    0    1    0    0    0    0    1
                   0    0   -1    0    1   -1    1    0   -1
                   1   -1    0    0   -1    1    0   -1    0
                   0    0    1    1    0    0    0    1    0
                  -1    1    0   -1    0    0   -1    0    1
                   0    0    1    0    1    0    1    0    0
                   1   -1    0    0   -1    0    0   -1    1
                   0    0   -1    1    0   -1    0    1   -1
                  -1    1    0   -1    0    1   -1    0    0
     tnons  0.00000000000000D+00  0.00000000000000D+00  0.00000000000000D+00
            0.00000000000000D+00  0.00000000000000D+00  0.00000000000000D+00
            0.00000000000000D+00  0.00000000000000D+00  0.00000000000000D+00
            0.00000000000000D+00  0.00000000000000D+00  0.00000000000000D+00
            0.00000000000000D+00  0.00000000000000D+00  0.00000000000000D+00
            0.00000000000000D+00  0.00000000000000D+00  0.00000000000000D+00
            0.00000000000000D+00  0.00000000000000D+00  0.00000000000000D+00
            0.00000000000000D+00  0.00000000000000D+00  0.00000000000000D+00
            0.00000000000000D+00  0.00000000000000D+00  0.00000000000000D+00
            0.00000000000000D+00  0.00000000000000D+00  0.00000000000000D+00
            0.00000000000000D+00  0.00000000000000D+00  0.00000000000000D+00
            0.00000000000000D+00  0.00000000000000D+00  0.00000000000000D+00
            0.00000000000000D+00  0.00000000000000D+00  0.00000000000000D+00
            0.00000000000000D+00  0.00000000000000D+00  0.00000000000000D+00
            0.00000000000000D+00  0.00000000000000D+00  0.00000000000000D+00
            0.00000000000000D+00  0.00000000000000D+00  0.00000000000000D+00
            0.00000000000000D+00  0.00000000000000D+00  0.00000000000000D+00
            0.00000000000000D+00  0.00000000000000D+00  0.00000000000000D+00
            0.00000000000000D+00  0.00000000000000D+00  0.00000000000000D+00
            0.00000000000000D+00  0.00000000000000D+00  0.00000000000000D+00
            0.00000000000000D+00  0.00000000000000D+00  0.00000000000000D+00
            0.00000000000000D+00  0.00000000000000D+00  0.00000000000000D+00
            0.00000000000000D+00  0.00000000000000D+00  0.00000000000000D+00
            0.00000000000000D+00  0.00000000000000D+00  0.00000000000000D+00
    tolwfr  0.10000000000000D+01
   tphysel  0.00000000000000D+00
    tsmear  0.40000000000000D-01
     typat         1    2
       wtk  0.62500000000000D-01  0.62500000000000D-01  0.62500000000000D-01
            0.62500000000000D-01  0.62500000000000D-01  0.62500000000000D-01
            0.62500000000000D-01  0.62500000000000D-01  0.62500000000000D-01
            0.62500000000000D-01  0.62500000000000D-01  0.62500000000000D-01
            0.62500000000000D-01  0.62500000000000D-01  0.62500000000000D-01
            0.62500000000000D-01
      xred  0.00000000000000D+00  0.00000000000000D+00  0.00000000000000D+00
            0.25000000000000D+00  0.25000000000000D+00  0.25000000000000D+00
     znucl  0.13000000000000D+02  0.33000000000000D+02
      zion  0.30000000000000D+01  0.50000000000000D+01
 
  Description of the potentials (KB energies)
  vrsio8 (for pseudopotentials)=100401
  usepaw =  0
  dimekb =  2       lmnmax=  2
  Atom type=    1   pspso=  0   nekb=   2
  iln lpsang iproj  ekb(:)
     1     0     1     2.5406576E+00  0.0000000E+00
     2     1     1     0.0000000E+00  1.3538152E+00
  Atom type=    2   pspso=  0   nekb=   1
  iln lpsang iproj  ekb(:)
     1     0     1     8.3875106E-01
 
 **** Database of total energy derivatives ****
 Number of data blocks=    2
  
 2nd derivatives (non-stat.)  - # elements :      81
 qpt  0.00000000E+00  0.00000000E+00  0.00000000E+00   1.0
   1   1   1   1  0.53511255645397D+01  0.00000000000000D+00
   2   1   1   1  0.26755627822699D+01  0.00000000000000D+00
   3   1   1   1  0.26755627822699D+01  0.00000000000000D+00
   1   2   1   1 -0.53510713100082D+01 -0.17080156918315D-16
   2   2   1   1 -0.26755356550041D+01 -0.19780784009090D-17
   3   2   1   1 -0.26755356550041D+01 -0.78453927778537D-17
   1   4   1   1 -0.74641778246019D+01  0.00000000000000D+00
   2   4   1   1  0.12348976305959D-16  0.00000000000000D+00
   3   4   1   1 -0.54164226940566D-16  0.00000000000000D+00
   1   1   2   1  0.26755627822699D+01  0.00000000000000D+00
   2   1   2   1  0.53511255645397D+01  0.00000000000000D+00
   3   1   2   1  0.26755627822699D+01  0.00000000000000D+00
   1   2   2   1 -0.26755356550041D+01 -0.19780784009090D-17
   2   2   2   1 -0.53510713100082D+01 -0.80990597890582D-17
   3   2   2   1 -0.26755356550041D+01 -0.33550507748332D-17
   1   4   2   1 -0.37007434154172D-16  0.00000000000000D+00
   2   4   2   1 -0.74641778246019D+01  0.00000000000000D+00
   3   4   2   1  0.49469689467366D-16  0.00000000000000D+00
   1   1   3   1  0.26755627822699D+01  0.00000000000000D+00
   2   1   3   1  0.26755627822699D+01  0.00000000000000D+00
   3   1   3   1  0.53511255645397D+01  0.00000000000000D+00
   1   2   3   1 -0.26755356550041D+01 -0.78453927778537D-17
   2   2   3   1 -0.26755356550041D+01 -0.33550507748332D-17
   3   2   3   1 -0.53510713100082D+01  0.77539622032582D-18
   1   4   3   1  0.74014868308344D-16  0.00000000000000D+00
   2   4   3   1 -0.11615647140417D-16  0.00000000000000D+00
   3   4   3   1 -0.74641778246019D+01  0.00000000000000D+00
   1   1   1   2 -0.53510709888087D+01  0.17080156918315D-16
   2   1   1   2 -0.26755354944043D+01  0.19780784009090D-17
   3   1   1   2 -0.26755354944043D+01  0.78453927778537D-17
   1   2   1   2  0.53510729199289D+01  0.00000000000000D+00
   2   2   1   2  0.26755364599644D+01  0.00000000000000D+00
   3   2   1   2  0.26755364599644D+01  0.00000000000000D+00
   1   4   1   2 -0.51781525094607D+02  0.00000000000000D+00
   2   4   1   2 -0.20782112517327D-15  0.00000000000000D+00
   3   4   1   2 -0.29425854132506D-15  0.00000000000000D+00
   1   1   2   2 -0.26755354944043D+01  0.19780784009090D-17
   2   1   2   2 -0.53510709888087D+01  0.80990597890582D-17
   3   1   2   2 -0.26755354944043D+01  0.33550507748332D-17
   1   2   2   2  0.26755364599645D+01  0.00000000000000D+00
   2   2   2   2  0.53510729199289D+01  0.00000000000000D+00
   3   2   2   2  0.26755364599644D+01  0.00000000000000D+00
   1   4   2   2  0.00000000000000D+00  0.00000000000000D+00
   2   4   2   2 -0.51781525094607D+02  0.00000000000000D+00
   3   4   2   2 -0.25159970334680D-15  0.00000000000000D+00
   1   1   3   2 -0.26755354944043D+01  0.78453927778537D-17
   2   1   3   2 -0.26755354944043D+01  0.33550507748332D-17
   3   1   3   2 -0.53510709888087D+01 -0.77539622032582D-18
   1   2   3   2  0.26755364599645D+01  0.00000000000000D+00
   2   2   3   2  0.26755364599645D+01  0.00000000000000D+00
   3   2   3   2  0.53510729199289D+01  0.00000000000000D+00
   1   4   3   2  0.29605947323338D-15  0.00000000000000D+00
   2   4   3   2  0.26729128641078D-15  0.00000000000000D+00
   3   4   3   2 -0.51781525094607D+02  0.00000000000000D+00
   1   1   1   4 -0.74641778663229D+01  0.00000000000000D+00
   2   1   1   4  0.00000000000000D+00  0.00000000000000D+00
   3   1   1   4  0.37007434154172D-16  0.00000000000000D+00
   1   2   1   4 -0.51781524587148D+02  0.00000000000000D+00
   2   2   1   4  0.29605947323338D-15  0.00000000000000D+00
   3   2   1   4  0.00000000000000D+00  0.00000000000000D+00
   1   4   1   4 -0.34789812034323D+03  0.00000000000000D+00
   2   4   1   4  0.11596604011441D+03  0.00000000000000D+00
   3   4   1   4  0.11596604011441D+03  0.00000000000000D+00
   1   1   2   4  0.25955769999880D-16  0.00000000000000D+00
   2   1   2   4 -0.74641778663229D+01  0.00000000000000D+00
   3   1   2   4 -0.43433412876528D-16  0.00000000000000D+00
   1   2   2   4  0.50959510018824D-16  0.00000000000000D+00
   2   2   2   4 -0.51781524587148D+02  0.00000000000000D+00
   3   2   2   4 -0.33429123891888D-16  0.00000000000000D+00
   1   4   2   4  0.11596604011441D+03  0.00000000000000D+00
   2   4   2   4 -0.34789812034323D+03  0.00000000000000D+00
   3   4   2   4  0.11596604011441D+03  0.00000000000000D+00
   1   1   3   4 -0.25573918062253D-16  0.00000000000000D+00
   2   1   3   4 -0.62008779545558D-16  0.00000000000000D+00
   3   1   3   4 -0.74641778663229D+01  0.00000000000000D+00
   1   2   3   4  0.34418832811372D-16  0.00000000000000D+00
   2   2   3   4 -0.80296056776208D-16  0.00000000000000D+00
   3   2   3   4 -0.51781524587148D+02  0.00000000000000D+00
   1   4   3   4  0.11596604011441D+03  0.00000000000000D+00
   2   4   3   4  0.11596604011441D+03  0.00000000000000D+00
   3   4   3   4 -0.34789812034323D+03  0.00000000000000D+00
  
 3rd derivatives              - # elements :     189
 qpt  0.00000000E+00  0.00000000E+00  0.00000000E+00   1.0
      0.00000000E+00  0.00000000E+00  0.00000000E+00   1.0
      0.00000000E+00  0.00000000E+00  0.00000000E+00   1.0
   1   4   1   4   1   1 -0.33977249031119D+02  0.00000000000000D+00
   2   4   1   4   1   1  0.16988623933158D+02  0.00000000000000D+00
   3   4   1   4   1   1  0.16988623933158D+02  0.00000000000000D+00
   1   4   2   4   1   1  0.16988628287783D+02  0.00000000000000D+00
   2   4   2   4   1   1  0.00000000000000D+00  0.00000000000000D+00
   3   4   2   4   1   1  0.00000000000000D+00  0.00000000000000D+00
   1   4   3   4   1   1  0.16988628287783D+02  0.00000000000000D+00
   2   4   3   4   1   1  0.00000000000000D+00  0.00000000000000D+00
   3   4   3   4   1   1  0.00000000000000D+00  0.00000000000000D+00
   1   4   1   4   2   1  0.00000000000000D+00  0.00000000000000D+00
   2   4   1   4   2   1  0.16988616388711D+02  0.00000000000000D+00
   3   4   1   4   2   1  0.00000000000000D+00  0.00000000000000D+00
   1   4   2   4   2   1  0.16988623933158D+02  0.00000000000000D+00
   2   4   2   4   2   1 -0.33977249031119D+02  0.00000000000000D+00
   3   4   2   4   2   1  0.16988623933158D+02  0.00000000000000D+00
   1   4   3   4   2   1  0.00000000000000D+00  0.00000000000000D+00
   2   4   3   4   2   1  0.16988628287783D+02  0.00000000000000D+00
   3   4   3   4   2   1  0.00000000000000D+00  0.00000000000000D+00
   1   4   1   4   3   1  0.00000000000000D+00  0.00000000000000D+00
   2   4   1   4   3   1  0.00000000000000D+00  0.00000000000000D+00
   3   4   1   4   3   1  0.16988628287783D+02  0.00000000000000D+00
   1   4   2   4   3   1  0.00000000000000D+00  0.00000000000000D+00
   2   4   2   4   3   1  0.00000000000000D+00  0.00000000000000D+00
   3   4   2   4   3   1  0.16988616388711D+02  0.00000000000000D+00
   1   4   3   4   3   1  0.16988623933158D+02  0.00000000000000D+00
   2   4   3   4   3   1  0.16988623933158D+02  0.00000000000000D+00
   3   4   3   4   3   1 -0.33977249031119D+02  0.00000000000000D+00
   1   4   1   4   1   2  0.23206837893877D+02  0.00000000000000D+00
   2   4   1   4   1   2 -0.11603416770204D+02  0.00000000000000D+00
   3   4   1   4   1   2 -0.11603416770204D+02  0.00000000000000D+00
   1   4   2   4   1   2 -0.11603411309948D+02  0.00000000000000D+00
   2   4   2   4   1   2  0.00000000000000D+00  0.00000000000000D+00
   3   4   2   4   1   2  0.00000000000000D+00  0.00000000000000D+00
   1   4   3   4   1   2 -0.11603411309948D+02  0.00000000000000D+00
   2   4   3   4   1   2  0.00000000000000D+00  0.00000000000000D+00
   3   4   3   4   1   2  0.00000000000000D+00  0.00000000000000D+00
   1   4   1   4   2   2  0.00000000000000D+00  0.00000000000000D+00
   2   4   1   4   2   2 -0.11603432044185D+02  0.00000000000000D+00
   3   4   1   4   2   2  0.00000000000000D+00  0.00000000000000D+00
   1   4   2   4   2   2 -0.11603416770204D+02  0.00000000000000D+00
   2   4   2   4   2   2  0.23206837893877D+02  0.00000000000000D+00
   3   4   2   4   2   2 -0.11603416770204D+02  0.00000000000000D+00
   1   4   3   4   2   2  0.00000000000000D+00  0.00000000000000D+00
   2   4   3   4   2   2 -0.11603411309948D+02  0.00000000000000D+00
   3   4   3   4   2   2  0.00000000000000D+00  0.00000000000000D+00
   1   4   1   4   3   2  0.00000000000000D+00  0.00000000000000D+00
   2   4   1   4   3   2  0.00000000000000D+00  0.00000000000000D+00
   3   4   1   4   3   2 -0.11603411309948D+02  0.00000000000000D+00
   1   4   2   4   3   2  0.00000000000000D+00  0.00000000000000D+00
   2   4   2   4   3   2  0.00000000000000D+00  0.00000000000000D+00
   3   4   2   4   3   2 -0.11603432044185D+02  0.00000000000000D+00
   1   4   3   4   3   2 -0.11603416770204D+02  0.00000000000000D+00
   2   4   3   4   3   2 -0.11603416770204D+02  0.00000000000000D+00
   3   4   3   4   3   2  0.23206837893877D+02  0.00000000000000D+00
   1   4   1   1   1   4 -0.14893202324837D+03  0.00000000000000D+00
   2   4   1   1   1   4  0.74466002043973D+02  0.00000000000000D+00
   3   4   1   1   1   4  0.74466002043973D+02  0.00000000000000D+00
   1   4   2   1   1   4  0.00000000000000D+00  0.00000000000000D+00
   2   4   2   1   1   4  0.74466021204395D+02  0.00000000000000D+00
   3   4   2   1   1   4  0.00000000000000D+00  0.00000000000000D+00
   1   4   3   1   1   4  0.00000000000000D+00  0.00000000000000D+00
   2   4   3   1   1   4  0.00000000000000D+00  0.00000000000000D+00
   3   4   3   1   1   4  0.74466002043973D+02  0.00000000000000D+00
   1   4   1   2   1   4  0.16490697768229D+03  0.00000000000000D+00
   2   4   1   2   1   4 -0.82453484463473D+02  0.00000000000000D+00
   3   4   1   2   1   4 -0.82453484463473D+02  0.00000000000000D+00
   1   4   2   2   1   4  0.00000000000000D+00  0.00000000000000D+00
   2   4   2   2   1   4 -0.82453493218820D+02  0.00000000000000D+00
   3   4   2   2   1   4  0.00000000000000D+00  0.00000000000000D+00
   1   4   3   2   1   4  0.00000000000000D+00  0.00000000000000D+00
   2   4   3   2   1   4  0.00000000000000D+00  0.00000000000000D+00
   3   4   3   2   1   4 -0.82453484463473D+02  0.00000000000000D+00
   1   1   1   4   1   4 -0.33977249031119D+02  0.00000000000000D+00
   2   1   1   4   1   4  0.00000000000000D+00  0.00000000000000D+00
   3   1   1   4   1   4  0.00000000000000D+00  0.00000000000000D+00
   1   2   1   4   1   4  0.23206837893877D+02  0.00000000000000D+00
   2   2   1   4   1   4  0.00000000000000D+00  0.00000000000000D+00
   3   2   1   4   1   4  0.00000000000000D+00  0.00000000000000D+00
   1   4   1   4   1   4  0.33215252220706D+03  0.00000000000000D+00
   2   4   1   4   1   4 -0.11071748062144D+03  0.00000000000000D+00
   3   4   1   4   1   4 -0.11071735402940D+03  0.00000000000000D+00
   1   1   2   4   1   4  0.16988628287783D+02  0.00000000000000D+00
   2   1   2   4   1   4  0.16988629452587D+02  0.00000000000000D+00
   3   1   2   4   1   4  0.00000000000000D+00  0.00000000000000D+00
   1   2   2   4   1   4 -0.11603411309948D+02  0.00000000000000D+00
   2   2   2   4   1   4 -0.11603415663417D+02  0.00000000000000D+00
   3   2   2   4   1   4  0.00000000000000D+00  0.00000000000000D+00
   1   4   2   4   1   4 -0.11071760769153D+03  0.00000000000000D+00
   2   4   2   4   1   4 -0.11071748109949D+03  0.00000000000000D+00
   3   4   2   4   1   4  0.11071753262854D+03  0.00000000000000D+00
   1   1   3   4   1   4  0.16988628287783D+02  0.00000000000000D+00
   2   1   3   4   1   4  0.00000000000000D+00  0.00000000000000D+00
   3   1   3   4   1   4  0.16988623933158D+02  0.00000000000000D+00
   1   2   3   4   1   4 -0.11603411309948D+02  0.00000000000000D+00
   2   2   3   4   1   4  0.00000000000000D+00  0.00000000000000D+00
   3   2   3   4   1   4 -0.11603416770204D+02  0.00000000000000D+00
   1   4   3   4   1   4 -0.11071760769153D+03  0.00000000000000D+00
   2   4   3   4   1   4  0.11071755616248D+03  0.00000000000000D+00
   3   4   3   4   1   4 -0.11071756048613D+03  0.00000000000000D+00
   1   4   1   1   2   4  0.74466002043973D+02  0.00000000000000D+00
   2   4   1   1   2   4  0.00000000000000D+00  0.00000000000000D+00
   3   4   1   1   2   4  0.00000000000000D+00  0.00000000000000D+00
   1   4   2   1   2   4  0.74466002043973D+02  0.00000000000000D+00
   2   4   2   1   2   4 -0.14893202324837D+03  0.00000000000000D+00
   3   4   2   1   2   4  0.74466002043973D+02  0.00000000000000D+00
   1   4   3   1   2   4  0.00000000000000D+00  0.00000000000000D+00
   2   4   3   1   2   4  0.00000000000000D+00  0.00000000000000D+00
   3   4   3   1   2   4  0.74466021204395D+02  0.00000000000000D+00
   1   4   1   2   2   4 -0.82453484463473D+02  0.00000000000000D+00
   2   4   1   2   2   4  0.00000000000000D+00  0.00000000000000D+00
   3   4   1   2   2   4  0.00000000000000D+00  0.00000000000000D+00
   1   4   2   2   2   4 -0.82453484463473D+02  0.00000000000000D+00
   2   4   2   2   2   4  0.16490697768229D+03  0.00000000000000D+00
   3   4   2   2   2   4 -0.82453484463473D+02  0.00000000000000D+00
   1   4   3   2   2   4  0.00000000000000D+00  0.00000000000000D+00
   2   4   3   2   2   4  0.00000000000000D+00  0.00000000000000D+00
   3   4   3   2   2   4 -0.82453493218820D+02  0.00000000000000D+00
   1   1   1   4   2   4  0.16988623933158D+02  0.00000000000000D+00
   2   1   1   4   2   4  0.16988628287783D+02  0.00000000000000D+00
   3   1   1   4   2   4  0.00000000000000D+00  0.00000000000000D+00
   1   2   1   4   2   4 -0.11603416770204D+02  0.00000000000000D+00
   2   2   1   4   2   4 -0.11603411309948D+02  0.00000000000000D+00
   3   2   1   4   2   4  0.00000000000000D+00  0.00000000000000D+00
   1   4   1   4   2   4 -0.11071748062144D+03  0.00000000000000D+00
   2   4   1   4   2   4 -0.11071730682401D+03  0.00000000000000D+00
   3   4   1   4   2   4  0.11071740555845D+03  0.00000000000000D+00
   1   1   2   4   2   4  0.00000000000000D+00  0.00000000000000D+00
   2   1   2   4   2   4 -0.33977249031119D+02  0.00000000000000D+00
   3   1   2   4   2   4  0.00000000000000D+00  0.00000000000000D+00
   1   2   2   4   2   4  0.00000000000000D+00  0.00000000000000D+00
   2   2   2   4   2   4  0.23206837893877D+02  0.00000000000000D+00
   3   2   2   4   2   4  0.00000000000000D+00  0.00000000000000D+00
   1   4   2   4   2   4 -0.11071748109949D+03  0.00000000000000D+00
   2   4   2   4   2   4  0.33215252220706D+03  0.00000000000000D+00
   3   4   2   4   2   4 -0.11071748062144D+03  0.00000000000000D+00
   1   1   3   4   2   4  0.00000000000000D+00  0.00000000000000D+00
   2   1   3   4   2   4  0.16988628287783D+02  0.00000000000000D+00
   3   1   3   4   2   4  0.16988629452587D+02  0.00000000000000D+00
   1   2   3   4   2   4  0.00000000000000D+00  0.00000000000000D+00
   2   2   3   4   2   4 -0.11603411309948D+02  0.00000000000000D+00
   3   2   3   4   2   4 -0.11603415663417D+02  0.00000000000000D+00
   1   4   3   4   2   4  0.11071755616248D+03  0.00000000000000D+00
   2   4   3   4   2   4 -0.11071760769153D+03  0.00000000000000D+00
   3   4   3   4   2   4 -0.11071748109949D+03  0.00000000000000D+00
   1   4   1   1   3   4  0.74466002043973D+02  0.00000000000000D+00
   2   4   1   1   3   4  0.00000000000000D+00  0.00000000000000D+00
   3   4   1   1   3   4  0.00000000000000D+00  0.00000000000000D+00
   1   4   2   1   3   4  0.00000000000000D+00  0.00000000000000D+00
   2   4   2   1   3   4  0.74466002043973D+02  0.00000000000000D+00
   3   4   2   1   3   4  0.00000000000000D+00  0.00000000000000D+00
   1   4   3   1   3   4  0.74466002043973D+02  0.00000000000000D+00
   2   4   3   1   3   4  0.74466002043973D+02  0.00000000000000D+00
   3   4   3   1   3   4 -0.14893202324837D+03  0.00000000000000D+00
   1   4   1   2   3   4 -0.82453484463473D+02  0.00000000000000D+00
   2   4   1   2   3   4  0.00000000000000D+00  0.00000000000000D+00
   3   4   1   2   3   4  0.00000000000000D+00  0.00000000000000D+00
   1   4   2   2   3   4  0.00000000000000D+00  0.00000000000000D+00
   2   4   2   2   3   4 -0.82453484463473D+02  0.00000000000000D+00
   3   4   2   2   3   4  0.00000000000000D+00  0.00000000000000D+00
   1   4   3   2   3   4 -0.82453484463473D+02  0.00000000000000D+00
   2   4   3   2   3   4 -0.82453484463473D+02  0.00000000000000D+00
   3   4   3   2   3   4  0.16490697768229D+03  0.00000000000000D+00
   1   1   1   4   3   4  0.16988623933158D+02  0.00000000000000D+00
   2   1   1   4   3   4  0.00000000000000D+00  0.00000000000000D+00
   3   1   1   4   3   4  0.16988628287783D+02  0.00000000000000D+00
   1   2   1   4   3   4 -0.11603416770204D+02  0.00000000000000D+00
   2   2   1   4   3   4  0.00000000000000D+00  0.00000000000000D+00
   3   2   1   4   3   4 -0.11603411309948D+02  0.00000000000000D+00
   1   4   1   4   3   4 -0.11071748109949D+03  0.00000000000000D+00
   2   4   1   4   3   4  0.11071740555845D+03  0.00000000000000D+00
   3   4   1   4   3   4 -0.11071760769153D+03  0.00000000000000D+00
   1   1   2   4   3   4  0.00000000000000D+00  0.00000000000000D+00
   2   1   2   4   3   4  0.16988623933158D+02  0.00000000000000D+00
   3   1   2   4   3   4  0.16988628287783D+02  0.00000000000000D+00
   1   2   2   4   3   4  0.00000000000000D+00  0.00000000000000D+00
   2   2   2   4   3   4 -0.11603416770204D+02  0.00000000000000D+00
   3   2   2   4   3   4 -0.11603411309948D+02  0.00000000000000D+00
   1   4   2   4   3   4  0.11071753262854D+03  0.00000000000000D+00
   2   4   2   4   3   4 -0.11071748062144D+03  0.00000000000000D+00
   3   4   2   4   3   4 -0.11071730682401D+03  0.00000000000000D+00
   1   1   3   4   3   4  0.00000000000000D+00  0.00000000000000D+00
   2   1   3   4   3   4  0.00000000000000D+00  0.00000000000000D+00
   3   1   3   4   3   4 -0.33977249031119D+02  0.00000000000000D+00
   1   2   3   4   3   4  0.00000000000000D+00  0.00000000000000D+00
   2   2   3   4   3   4  0.00000000000000D+00  0.00000000000000D+00
   3   2   3   4   3   4  0.23206837893877D+02  0.00000000000000D+00
   1   4   3   4   3   4 -0.11071748062144D+03  0.00000000000000D+00
   2   4   3   4   3   4 -0.11071748109949D+03  0.00000000000000D+00
   3   4   3   4   3   4  0.33215252220706D+03  0.00000000000000D+00

 List of bloks and their characteristics 
  
 2nd derivatives (non-stat.)  - # elements :      81
 qpt  0.00000000E+00  0.00000000E+00  0.00000000E+00   1.0
  
 3rd derivatives              - # elements :     189
 qpt  0.00000000E+00  0.00000000E+00  0.00000000E+00   1.0
      0.00000000E+00  0.00000000E+00  0.00000000E+00   1.0
      0.00000000E+00  0.00000000E+00  0.00000000E+00   1.0
