
.Version 7.10.4 of ABINIT 
.(MPI version, prepared for a x86_64_linux_gnu4.7 computer) 

.Copyright (C) 1998-2014 ABINIT group . 
 ABINIT comes with ABSOLUTELY NO WARRANTY.
 It is free software, and you are welcome to redistribute it
 under certain conditions (GNU General Public License,
 see ~abinit/COPYING or http://www.gnu.org/copyleft/gpl.txt).

 ABINIT is a project of the Universite Catholique de Louvain,
 Corning Inc. and other collaborators, see ~abinit/doc/developers/contributors.txt .
 Please read ~abinit/doc/users/acknowledgments.html for suggested
 acknowledgments of the ABINIT effort.
 For more information, see http://www.abinit.org .

.Starting date : Wed 11 Mar 2015.
- ( at 10h26 )
  
- input  file    -> t59.in
- output file    -> t59.out
- root for input  files -> t59i
- root for output files -> t59o


 DATASET    1 : space group Im -3 m (#229); Bravais cI (body-center cubic)
================================================================================
 Values of the parameters that define the memory need for DATASET  1.
   intxc =         0  ionmov =         0    iscf =         5 xclevel =         2
  lmnmax =         2   lnmax =         2   mband =         8  mffmem =         1
P  mgfft =        20   mkmem =         2 mpssoang=         3     mpw =       402
  mqgrid =      3001   natom =         1    nfft =      8000    nkpt =         2
  nloalg =         4  nspden =         2 nspinor =         1  nsppol =         2
    nsym =        48  n1xccc =      2501  ntypat =         1  occopt =         3
================================================================================
P This job should need less than                       5.028 Mbytes of memory.
  Rough estimation (10% accuracy) of disk space for files :
_ WF disk file :      0.198 Mbytes ; DEN or POT disk file :      0.124 Mbytes.
================================================================================


 DATASET    2 : space group Im -3 m (#229); Bravais cI (body-center cubic)
================================================================================
 Values of the parameters that define the memory need for DATASET  2.
   intxc =         0  ionmov =         0    iscf =        -2 xclevel =         2
  lmnmax =         2   lnmax =         2   mband =         8  mffmem =         1
P  mgfft =        20   mkmem =         2 mpssoang=         3     mpw =       402
  mqgrid =      3001   natom =         1    nfft =      8000    nkpt =         2
  nloalg =         4  nspden =         2 nspinor =         1  nsppol =         2
    nsym =        48  n1xccc =      2501  ntypat =         1  occopt =         3
================================================================================
P This job should need less than                       3.685 Mbytes of memory.
  Rough estimation (10% accuracy) of disk space for files :
_ WF disk file :      0.198 Mbytes ; DEN or POT disk file :      0.124 Mbytes.
================================================================================


 DATASET    3 : space group Im -3 m (#229); Bravais cI (body-center cubic)
================================================================================
 Values of the parameters that define the memory need for DATASET  3 (RF).
   intxc =         0    iscf =         5 xclevel =         2  lmnmax =         2
   lnmax =         2   mband =         8  mffmem =         1   mgfft =        20
P  mkmem =         4  mkqmem =         4  mk1mem =         4 mpssoang=         3
     mpw =       402  mqgrid =      3001   natom =         1    nfft =      8000
    nkpt =         4  nloalg =         4  nspden =         2 nspinor =         1
  nsppol =         2    nsym =        48  n1xccc =      2501  ntypat =         1
  occopt =         3
================================================================================
P This job should need less than                       5.662 Mbytes of memory.
  Rough estimation (10% accuracy) of disk space for files :
_ WF disk file :      0.395 Mbytes ; DEN or POT disk file :      0.124 Mbytes.
================================================================================

--------------------------------------------------------------------------------
------------- Echo of variables that govern the present computation ------------
--------------------------------------------------------------------------------
-
- outvars: echo of selected default values                                      
-   accesswff0 =  0 , fftalg0 =112 , wfoptalg0 =  0
-
- outvars: echo of global parameters not present in the input file              
-  max_nthreads =    0
-
 -outvars: echo values of preprocessed input variables --------
            acell      5.4200000000E+00  5.4200000000E+00  5.4200000000E+00 Bohr
              amu      5.58470000E+01
          dilatmx      1.10000000E+00
             ecut      1.80000000E+01 Hartree
-          fftalg         112
           getden1          0
           getden2         -1
           getden3          0
           getwfk1          0
           getwfk2         -1
           getwfk3         -1
             iscf1          5
             iscf2         -2
             iscf3          5
              ixc          11
           jdtset        1    2    3
              kpt1     2.50000000E-01  2.50000000E-01  2.50000000E-01
                      -2.50000000E-01  2.50000000E-01  2.50000000E-01
              kpt2     2.50000000E-01  2.50000000E-01  2.50000000E-01
                      -2.50000000E-01  2.50000000E-01  2.50000000E-01
              kpt3     2.50000000E-01  2.50000000E-01  2.50000000E-01
                      -2.50000000E-01  2.50000000E-01  2.50000000E-01
                       2.50000000E-01 -2.50000000E-01  2.50000000E-01
                      -2.50000000E-01 -2.50000000E-01  2.50000000E-01
           kptopt1          1
           kptopt2          1
           kptopt3          2
         kptrlatt        2    0    0      0    2    0      0    0    2
          kptrlen      9.38771538E+00
P           mkmem1          2
P           mkmem2          2
P           mkmem3          4
P          mkqmem1          2
P          mkqmem2          2
P          mkqmem3          4
P          mk1mem1          2
P          mk1mem2          2
P          mk1mem3          4
            natom           1
            nband1          8
            nband2          8
            nband3          8
           nbdbuf1          0
           nbdbuf2          2
           nbdbuf3          2
           ndtset           3
            ngfft          20      20      20
             nkpt1          2
             nkpt2          2
             nkpt3          4
             nqpt1          0
             nqpt2          0
             nqpt3          1
           nspden           2
           nsppol           2
            nstep          50
             nsym          48
           ntypat           1
              occ1     1.000000  1.000000  1.000000  1.000000  0.000000  0.000000
                       0.000000  0.000000
                       1.000000  1.000000  1.000000  1.000000  0.000000  0.000000
                       0.000000  0.000000
                       1.000000  1.000000  1.000000  1.000000  0.000000  0.000000
                       0.000000  0.000000
                       1.000000  1.000000  1.000000  1.000000  0.000000  0.000000
                       0.000000  0.000000
              occ3     1.000000  1.000000  1.000000  1.000000  0.000000  0.000000
                       0.000000  0.000000
                       1.000000  1.000000  1.000000  1.000000  0.000000  0.000000
                       0.000000  0.000000
                       1.000000  1.000000  1.000000  1.000000  0.000000  0.000000
                       0.000000  0.000000
                       1.000000  1.000000  1.000000  1.000000  0.000000  0.000000
                       0.000000  0.000000
                       1.000000  1.000000  1.000000  1.000000  0.000000  0.000000
                       0.000000  0.000000
                       1.000000  1.000000  1.000000  1.000000  0.000000  0.000000
                       0.000000  0.000000
                       1.000000  1.000000  1.000000  1.000000  0.000000  0.000000
                       0.000000  0.000000
                       1.000000  1.000000  1.000000  1.000000  0.000000  0.000000
                       0.000000  0.000000
           occopt           3
        optdriver1          0
        optdriver2          0
        optdriver3          1
            rfdir1          0       0       0
            rfdir2          0       0       0
            rfdir3          1       0       0
           rfstrs1          0
           rfstrs2          0
           rfstrs3          2
            rprim     -5.0000000000E-01  5.0000000000E-01  5.0000000000E-01
                       5.0000000000E-01 -5.0000000000E-01  5.0000000000E-01
                       5.0000000000E-01  5.0000000000E-01 -5.0000000000E-01
           shiftk      5.00000000E-01  5.00000000E-01  5.00000000E-01
          spgroup         229
           spinat1     0.0000000000E+00  0.0000000000E+00  4.0000000000E+00
           spinat2     0.0000000000E+00  0.0000000000E+00  0.0000000000E+00
           spinat3     0.0000000000E+00  0.0000000000E+00  0.0000000000E+00
           symrel      1  0  0   0  1  0   0  0  1      -1  0  0   0 -1  0   0  0 -1
                      -1 -1 -1   0  0  1   0  1  0       1  1  1   0  0 -1   0 -1  0
                       0  1  0   1  0  0  -1 -1 -1       0 -1  0  -1  0  0   1  1  1
                       0  0  1  -1 -1 -1   1  0  0       0  0 -1   1  1  1  -1  0  0
                       0  1  0   1  0  0   0  0  1       0 -1  0  -1  0  0   0  0 -1
                      -1 -1 -1   0  0  1   1  0  0       1  1  1   0  0 -1  -1  0  0
                       1  0  0   0  1  0  -1 -1 -1      -1  0  0   0 -1  0   1  1  1
                       0  0  1  -1 -1 -1   0  1  0       0  0 -1   1  1  1   0 -1  0
                      -1 -1 -1   1  0  0   0  0  1       1  1  1  -1  0  0   0  0 -1
                       0  1  0   0  0  1   1  0  0       0 -1  0   0  0 -1  -1  0  0
                       1  0  0  -1 -1 -1   0  1  0      -1  0  0   1  1  1   0 -1  0
                       0  0  1   0  1  0  -1 -1 -1       0  0 -1   0 -1  0   1  1  1
                       1  0  0  -1 -1 -1   0  0  1      -1  0  0   1  1  1   0  0 -1
                       0  1  0   0  0  1  -1 -1 -1       0 -1  0   0  0 -1   1  1  1
                      -1 -1 -1   1  0  0   0  1  0       1  1  1  -1  0  0   0 -1  0
                       0  0  1   0  1  0   1  0  0       0  0 -1   0 -1  0  -1  0  0
                       0  1  0  -1 -1 -1   0  0  1       0 -1  0   1  1  1   0  0 -1
                       1  0  0   0  0  1  -1 -1 -1      -1  0  0   0  0 -1   1  1  1
                      -1 -1 -1   0  1  0   1  0  0       1  1  1   0 -1  0  -1  0  0
                       0  0  1   1  0  0   0  1  0       0  0 -1  -1  0  0   0 -1  0
                      -1 -1 -1   0  1  0   0  0  1       1  1  1   0 -1  0   0  0 -1
                       1  0  0   0  0  1   0  1  0      -1  0  0   0  0 -1   0 -1  0
                       0  1  0  -1 -1 -1   1  0  0       0 -1  0   1  1  1  -1  0  0
                       0  0  1   1  0  0  -1 -1 -1       0  0 -1  -1  0  0   1  1  1
           tolvrs1     1.00000000E-10
           tolvrs2     0.00000000E+00
           tolvrs3     1.00000000E-08
           tolwfr1     0.00000000E+00
           tolwfr2     1.00000000E-08
           tolwfr3     0.00000000E+00
           tsmear      1.00000000E-02 Hartree
            typat      1
              wtk1       0.25000    0.75000
              wtk2       0.25000    0.75000
              wtk3       0.25000    0.25000    0.25000    0.25000
            znucl       26.00000

================================================================================

 chkinp: Checking input parameters for consistency, jdtset=   1.

 chkinp: Checking input parameters for consistency, jdtset=   2.

 chkinp: Checking input parameters for consistency, jdtset=   3.

================================================================================
== DATASET  1 ==================================================================
-   nproc =    1

 Exchange-correlation functional for the present dataset will be:
  GGA: Perdew-Burke-Ernzerhof functional - ixc=11
 Citation for XC functional:
  J.P.Perdew, K.Burke, M.Ernzerhof, PRL 77, 3865 (1996)

 Real(R)+Recip(G) space primitive vectors, cartesian coordinates (Bohr,Bohr^-1):
 R(1)= -2.7100000  2.7100000  2.7100000  G(1)=  0.0000000  0.1845018  0.1845018
 R(2)=  2.7100000 -2.7100000  2.7100000  G(2)=  0.1845018  0.0000000  0.1845018
 R(3)=  2.7100000  2.7100000 -2.7100000  G(3)=  0.1845018  0.1845018  0.0000000
 Unit cell volume ucvol=  7.9610044E+01 bohr^3
 Angles (23,13,12)=  1.09471221E+02  1.09471221E+02  1.09471221E+02 degrees

 getcut: wavevector=  0.0000  0.0000  0.0000  ngfft=  20  20  20
         ecut(hartree)=     21.780   => boxcut(ratio)=   2.03324

--- Pseudopotential description ------------------------------------------------
- pspini: atom type   1  psp file is /home/gonze/ABINIT/ABINITv7.10.4/trunk/7.10.4-private/tests/Psps_for_tests/26fe.pspnc
- pspatm: opening atomic psp file    /home/gonze/ABINIT/ABINITv7.10.4/trunk/7.10.4-private/tests/Psps_for_tests/26fe.pspnc
-  Troullier-Martins psp for element  Fe        Thu Oct 27 17:35:05 EDT 1994
- 26.00000   8.00000    940714                znucl, zion, pspdat
    1    1    2    0      2001   0.00000      pspcod,pspxc,lmax,lloc,mmax,r2well
    0   4.333  10.868    0   2.2918558        l,e99.0,e99.9,nproj,rcpsp
   0.00000000   0.00000000   0.00000000   0.00000000     rms, ekb1, ekb2, epsatm
    1   1.213   4.197    1   2.8345121        l,e99.0,e99.9,nproj,rcpsp
   0.00000000   0.00000000   0.00000000   0.00000000     rms, ekb1, ekb2, epsatm
    2  18.664  23.972    1   2.2918558        l,e99.0,e99.9,nproj,rcpsp
   0.00000000   0.00000000   0.00000000   0.00000000     rms, ekb1, ekb2, epsatm
    1.56404770202776    2.06158206779471    6.88331421535388   rchrg,fchrg,qchrg
 pspatm: epsatm=   62.03296659
         --- l  ekb(1:nproj) -->
             1    1.561134
             2   -8.115829
 pspatm: atomic psp has been read  and splines computed

   4.96263733E+02                                ecore*ucvol(ha*bohr**3)
--------------------------------------------------------------------------------

P newkpt: treating      8 bands with npw=     360 for ikpt=   1 by node    0
P newkpt: treating      8 bands with npw=     402 for ikpt=   2 by node    0
P newkpt: treating      8 bands with npw=     360 for ikpt=   1 by node    0
P newkpt: treating      8 bands with npw=     402 for ikpt=   2 by node    0

_setup2: Arith. and geom. avg. npw (full set) are     391.500     391.062

================================================================================

     iter   Etot(hartree)     deltaE(h) residm    vres2    magn
 ETOT  1  -23.661438352153    -2.37E+01 1.21E-01 3.19E+03 1.998
 ETOT  2  -24.170999248983    -5.10E-01 1.80E-03 1.63E+03 0.660
 ETOT  3  -24.837242241891    -6.66E-01 2.36E-02 6.62E+01 2.322
 ETOT  4  -24.846018229626    -8.78E-03 3.57E-03 4.21E+00 2.400
 ETOT  5  -24.847116304716    -1.10E-03 4.97E-04 4.60E+01 2.549
 ETOT  6  -24.847888550793    -7.72E-04 9.22E-05 1.60E+01 2.501
 ETOT  7  -24.851070515710    -3.18E-03 9.50E-05 3.70E+00 2.949
 ETOT  8  -24.851096668738    -2.62E-05 1.42E-06 2.88E+00 2.917
 ETOT  9  -24.852611509780    -1.51E-03 2.08E-04 2.74E+00 3.197
 ETOT 10  -24.853781653581    -1.17E-03 1.24E-04 1.57E+00 3.465
 ETOT 11  -24.854040984457    -2.59E-04 1.51E-05 1.03E-01 3.424
 ETOT 12  -24.854091498331    -5.05E-05 3.87E-06 1.44E-02 3.405
 ETOT 13  -24.854081081258     1.04E-05 1.19E-07 4.28E-01 3.401
 ETOT 14  -24.854099929133    -1.88E-05 3.60E-07 7.64E-02 3.395
 ETOT 15  -24.854099960404    -3.13E-08 1.50E-08 9.32E-02 3.395
 ETOT 16  -24.854099976678    -1.63E-08 1.83E-09 8.66E-02 3.395
 ETOT 17  -24.854104618521    -4.64E-06 9.66E-08 1.41E-02 3.391
 ETOT 18  -24.854106541225    -1.92E-06 1.20E-07 2.68E-03 3.386
 ETOT 19  -24.854106667559    -1.26E-07 7.38E-10 3.04E-04 3.385
 ETOT 20  -24.854106704228    -3.67E-08 8.69E-10 2.95E-06 3.385
 ETOT 21  -24.854106705977    -1.75E-09 8.26E-12 2.84E-05 3.384
 ETOT 22  -24.854106706644    -6.67E-10 1.57E-11 2.75E-06 3.384
 ETOT 23  -24.854106706985    -3.41E-10 2.03E-11 5.47E-07 3.384
 ETOT 24  -24.854106706993    -8.59E-12 5.55E-13 4.81E-08 3.384
 ETOT 25  -24.854106706996    -2.51E-12 1.39E-13 6.50E-08 3.384
 ETOT 26  -24.854106706997    -1.09E-12 9.75E-14 4.09E-09 3.384
 ETOT 27  -24.854106706997    -1.63E-13 1.18E-14 1.46E-09 3.384
 ETOT 28  -24.854106706997    -2.84E-14 2.38E-15 1.22E-09 3.384
 ETOT 29  -24.854106706997    -1.42E-14 1.95E-16 6.31E-11 3.384

 At SCF step   29       vres2   =  6.31E-11 < tolvrs=  1.00E-10 =>converged.

 Cartesian components of stress tensor (hartree/bohr^3)
  sigma(1 1)=  1.52871324E-02  sigma(3 2)=  0.00000000E+00
  sigma(2 2)=  1.52871324E-02  sigma(3 1)=  0.00000000E+00
  sigma(3 3)=  1.52871324E-02  sigma(2 1)=  0.00000000E+00

================================================================================

 ----iterations are completed or convergence reached----

 Mean square residual over all n,k,spin=   1.8742E-17; max=  1.9537E-16
   0.2500  0.2500  0.2500    1  1.82997E-17 kpt; spin; max resid(k); each band:
  1.56E-17 1.56E-17 1.56E-17 4.12E-20 4.13E-20 1.59E-17 1.83E-17 1.83E-17
  -0.2500  0.2500  0.2500    1  2.13798E-17 kpt; spin; max resid(k); each band:
  1.99E-18 2.79E-19 3.42E-18 3.42E-18 6.30E-20 5.12E-19 2.14E-17 1.92E-17
   0.2500  0.2500  0.2500    2  2.51397E-17 kpt; spin; max resid(k); each band:
  1.38E-17 1.38E-17 1.38E-17 1.03E-18 1.03E-18 2.51E-17 1.41E-17 2.50E-17
  -0.2500  0.2500  0.2500    2  1.95374E-16 kpt; spin; max resid(k); each band:
  2.87E-18 1.20E-18 1.05E-17 1.05E-17 2.18E-20 2.69E-18 1.95E-16 1.19E-16
 reduced coordinates (array xred) for    1 atoms
       0.000000000000      0.000000000000      0.000000000000
 rms dE/dt=  0.0000E+00; max dE/dt=  0.0000E+00; dE/dt below (all hartree)
    1       0.000000000000      0.000000000000      0.000000000000

 cartesian coordinates (angstrom) at end:
    1      0.00000000000000     0.00000000000000     0.00000000000000

 cartesian forces (hartree/bohr) at end:
    1     -0.00000000000000    -0.00000000000000    -0.00000000000000
 frms,max,avg= 0.0000000E+00 0.0000000E+00   0.000E+00  0.000E+00  0.000E+00 h/b

 cartesian forces (eV/Angstrom) at end:
    1     -0.00000000000000    -0.00000000000000    -0.00000000000000
 frms,max,avg= 0.0000000E+00 0.0000000E+00   0.000E+00  0.000E+00  0.000E+00 e/A
 length scales=  5.420000000000  5.420000000000  5.420000000000 bohr
              =  2.868140470558  2.868140470558  2.868140470558 angstroms
 prteigrs : about to open file t59o_DS1_EIG
 Fermi (or HOMO) energy (hartree) =  -0.25342   Average Vxc (hartree)=  -0.49869
 Magnetization (Bohr magneton)=  3.38424113E+00
 Total spin up =  5.69212057E+00   Total spin down =  2.30787943E+00
 Eigenvalues (hartree) for nkpt=   2  k points, SPIN UP:
 kpt#   1, nband=  8, wtk=  0.25000, kpt=  0.2500  0.2500  0.2500 (reduced coord)
  -0.41959  -0.41959  -0.41959  -0.32533  -0.32533   0.03745   0.03745   0.03745
      occupation numbers for kpt#   1
   1.00000   1.00000   1.00000   0.99925   0.99925   0.00000   0.00000   0.00000
 kpt#   2, nband=  8, wtk=  0.75000, kpt= -0.2500  0.2500  0.2500 (reduced coord)
  -0.45400  -0.37965  -0.36187  -0.36187  -0.33465  -0.27836   0.35512   0.35512
      occupation numbers for kpt#   2
   1.00000   1.00000   0.99998   0.99998   0.99970   0.92367   0.00000   0.00000
 Eigenvalues (hartree) for nkpt=   2  k points, SPIN DOWN:
 kpt#   1, nband=  8, wtk=  0.25000, kpt=  0.2500  0.2500  0.2500 (reduced coord)
  -0.31455  -0.31455  -0.31455  -0.19210  -0.19210   0.09748   0.09748   0.09748
      occupation numbers for kpt#   1
   0.99779   0.99779   0.99779   0.00217   0.00217   0.00000   0.00000   0.00000
 kpt#   2, nband=  8, wtk=  0.75000, kpt= -0.2500  0.2500  0.2500 (reduced coord)
  -0.41246  -0.27236  -0.23177  -0.23177  -0.19469  -0.16079   0.41550   0.41550
      occupation numbers for kpt#   2
   1.00000   0.86922   0.10291   0.10291   0.00281   0.00009   0.00000   0.00000
 Total charge density [el/Bohr^3]
,     Maximum=    6.8134E-01  at reduced coord.    0.0000    0.8500    0.8500
,Next maximum=    6.8134E-01  at reduced coord.    0.8500    0.0000    0.8500
,     Minimum=    1.4840E-03  at reduced coord.    0.0000    0.0000    0.0000
,Next minimum=    2.5168E-02  at reduced coord.    0.0500    0.0000    0.0000
,  Integrated=    8.0000E+00
 Spin up density      [el/Bohr^3]
,     Maximum=    5.2260E-01  at reduced coord.    0.0000    0.8500    0.8500
,Next maximum=    5.2260E-01  at reduced coord.    0.8500    0.0000    0.8500
,     Minimum=    8.7201E-04  at reduced coord.    0.0000    0.0000    0.0000
,Next minimum=    1.6234E-02  at reduced coord.    0.5000    0.5000    0.0000
,  Integrated=    5.6921E+00
 Spin down density    [el/Bohr^3]
,     Maximum=    1.5874E-01  at reduced coord.    0.0000    0.8500    0.8500
,Next maximum=    1.5874E-01  at reduced coord.    0.8500    0.0000    0.8500
,     Minimum=    6.1197E-04  at reduced coord.    0.0000    0.0000    0.0000
,Next minimum=    4.9706E-03  at reduced coord.    0.0500    0.0000    0.0000
,  Integrated=    2.3079E+00
 Magnetization (spin up - spin down) [el/Bohr^3]
,     Maximum=    3.8512E-01  at reduced coord.    0.8000    0.9500    0.9500
,Next maximum=    3.8512E-01  at reduced coord.    0.9500    0.8000    0.9500
,     Minimum=   -3.3388E-03  at reduced coord.    0.5000    0.5000    0.0000
,Next minimum=   -3.3388E-03  at reduced coord.    0.5000    0.0000    0.5000
,  Integrated=    3.3842E+00
 Relative magnetization (=zeta, between -1 and 1)
,     Maximum=    6.3627E-01  at reduced coord.    0.8500    0.8500    0.8500
,Next maximum=    6.3627E-01  at reduced coord.    0.0000    0.0000    0.8500
,     Minimum=   -9.3247E-02  at reduced coord.    0.5000    0.5000    0.0000
,Next minimum=   -9.3247E-02  at reduced coord.    0.5000    0.0000    0.5000

--------------------------------------------------------------------------------
 Components of total free energy (in Hartree) :

    Kinetic energy  =  2.49540435504103E+01
    Hartree energy  =  2.56495448761619E+00
    XC energy       = -1.07437342060458E+01
    Ewald energy    = -2.14862491483900E+01
    PspCore energy  =  6.23368243229498E+00
    Loc. psp. energy=  2.14100608193238E+00
    NL   psp  energy= -2.85075043648809E+01
    >>>>> Internal E= -2.48438011670629E+01

    -kT*entropy     = -1.03055399343415E-02
    >>>>>>>>> Etotal= -2.48541067069972E+01

 Other information on the energy :
    Total energy(eV)= -6.76314638101502E+02 ; Band energy (Ha)=  -2.8477114843E+00
--------------------------------------------------------------------------------

 Cartesian components of stress tensor (hartree/bohr^3)
  sigma(1 1)=  1.52871324E-02  sigma(3 2)=  0.00000000E+00
  sigma(2 2)=  1.52871324E-02  sigma(3 1)=  0.00000000E+00
  sigma(3 3)=  1.52871324E-02  sigma(2 1)=  0.00000000E+00

-Cartesian components of stress tensor (GPa)         [Pressure= -4.4976E+02 GPa]
- sigma(1 1)=  4.49762888E+02  sigma(3 2)=  0.00000000E+00
- sigma(2 2)=  4.49762888E+02  sigma(3 1)=  0.00000000E+00
- sigma(3 3)=  4.49762888E+02  sigma(2 1)=  0.00000000E+00

================================================================================
== DATASET  2 ==================================================================
-   nproc =    1

 mkfilename : getwfk/=0, take file _WFK from output of DATASET   1.

 mkfilename : getden/=0, take file _DEN from output of DATASET   1.

 Exchange-correlation functional for the present dataset will be:
  GGA: Perdew-Burke-Ernzerhof functional - ixc=11
 Citation for XC functional:
  J.P.Perdew, K.Burke, M.Ernzerhof, PRL 77, 3865 (1996)

 Real(R)+Recip(G) space primitive vectors, cartesian coordinates (Bohr,Bohr^-1):
 R(1)= -2.7100000  2.7100000  2.7100000  G(1)=  0.0000000  0.1845018  0.1845018
 R(2)=  2.7100000 -2.7100000  2.7100000  G(2)=  0.1845018  0.0000000  0.1845018
 R(3)=  2.7100000  2.7100000 -2.7100000  G(3)=  0.1845018  0.1845018  0.0000000
 Unit cell volume ucvol=  7.9610044E+01 bohr^3
 Angles (23,13,12)=  1.09471221E+02  1.09471221E+02  1.09471221E+02 degrees

 getcut: wavevector=  0.0000  0.0000  0.0000  ngfft=  20  20  20
         ecut(hartree)=     21.780   => boxcut(ratio)=   2.03324
--------------------------------------------------------------------------------

-inwffil : will read wavefunctions from disk file t59o_DS1_WFK
P newkpt: treating      8 bands with npw=     360 for ikpt=   1 by node    0
P newkpt: treating      8 bands with npw=     402 for ikpt=   2 by node    0
P newkpt: treating      8 bands with npw=     360 for ikpt=   1 by node    0
P newkpt: treating      8 bands with npw=     402 for ikpt=   2 by node    0


================================================================================
 prteigrs : about to open file t59o_DS2_EIG

 SPIN UP channel
 Non-SCF case, kpt    1 (  0.25000  0.25000  0.25000), residuals and eigenvalues=
  4.38E-17  4.38E-17  4.38E-17  8.15E-18  8.15E-18  8.07E-17  1.04E-16  1.04E-16
 -4.1959E-01 -4.1959E-01 -4.1959E-01 -3.2533E-01 -3.2533E-01  3.7452E-02
  3.7452E-02  3.7452E-02
 Non-SCF case, kpt    2 ( -0.25000  0.25000  0.25000), residuals and eigenvalues=
  7.79E-17  1.97E-17  2.65E-17  2.65E-17  2.07E-17  3.21E-17  9.34E-17  9.43E-17
 -4.5400E-01 -3.7965E-01 -3.6187E-01 -3.6187E-01 -3.3465E-01 -2.7836E-01
  3.5512E-01  3.5512E-01

 SPIN DOWN channel
 Non-SCF case, kpt    1 (  0.25000  0.25000  0.25000), residuals and eigenvalues=
  8.73E-17  8.73E-17  8.73E-17  7.91E-17  7.91E-17  2.37E-16  2.13E-16  2.37E-16
 -3.1455E-01 -3.1455E-01 -3.1455E-01 -1.9210E-01 -1.9210E-01  9.7484E-02
  9.7484E-02  9.7484E-02
 Non-SCF case, kpt    2 ( -0.25000  0.25000  0.25000), residuals and eigenvalues=
  1.50E-16  8.55E-17  4.76E-17  4.76E-17  5.01E-17  8.82E-17  2.58E-16  2.62E-16
 -4.1246E-01 -2.7236E-01 -2.3177E-01 -2.3177E-01 -1.9469E-01 -1.6079E-01
  4.1550E-01  4.1550E-01
================================================================================

 ----iterations are completed or convergence reached----

 Mean square residual over all n,k,spin=   9.1359E-17; max=  2.3702E-16
   0.2500  0.2500  0.2500    1  1.03770E-16 kpt; spin; max resid(k); each band:
  4.38E-17 4.38E-17 4.38E-17 8.15E-18 8.15E-18 8.07E-17 1.04E-16 1.04E-16
  -0.2500  0.2500  0.2500    1  9.42857E-17 kpt; spin; max resid(k); each band:
  7.79E-17 1.97E-17 2.65E-17 2.65E-17 2.07E-17 3.21E-17 9.34E-17 9.43E-17
   0.2500  0.2500  0.2500    2  2.37017E-16 kpt; spin; max resid(k); each band:
  8.73E-17 8.73E-17 8.73E-17 7.91E-17 7.91E-17 2.37E-16 2.13E-16 2.37E-16
  -0.2500  0.2500  0.2500    2  2.62428E-16 kpt; spin; max resid(k); each band:
  1.50E-16 8.55E-17 4.76E-17 4.76E-17 5.01E-17 8.82E-17 2.58E-16 2.62E-16
 reduced coordinates (array xred) for    1 atoms
       0.000000000000      0.000000000000      0.000000000000

 cartesian coordinates (angstrom) at end:
    1      0.00000000000000     0.00000000000000     0.00000000000000
 length scales=  5.420000000000  5.420000000000  5.420000000000 bohr
              =  2.868140470558  2.868140470558  2.868140470558 angstroms
 prteigrs : about to open file t59o_DS2_EIG
 Eigenvalues (hartree) for nkpt=   2  k points, SPIN UP:
 kpt#   1, nband=  8, wtk=  0.25000, kpt=  0.2500  0.2500  0.2500 (reduced coord)
  -0.41959  -0.41959  -0.41959  -0.32533  -0.32533   0.03745   0.03745   0.03745
 kpt#   2, nband=  8, wtk=  0.75000, kpt= -0.2500  0.2500  0.2500 (reduced coord)
  -0.45400  -0.37965  -0.36187  -0.36187  -0.33465  -0.27836   0.35512   0.35512
 Eigenvalues (hartree) for nkpt=   2  k points, SPIN DOWN:
 kpt#   1, nband=  8, wtk=  0.25000, kpt=  0.2500  0.2500  0.2500 (reduced coord)
  -0.31455  -0.31455  -0.31455  -0.19210  -0.19210   0.09748   0.09748   0.09748
 kpt#   2, nband=  8, wtk=  0.75000, kpt= -0.2500  0.2500  0.2500 (reduced coord)
  -0.41246  -0.27236  -0.23177  -0.23177  -0.19469  -0.16079   0.41550   0.41550
 Total charge density [el/Bohr^3]
,     Maximum=    6.8134E-01  at reduced coord.    0.0000    0.8500    0.8500
,Next maximum=    6.8134E-01  at reduced coord.    0.8500    0.0000    0.8500
,     Minimum=    1.4840E-03  at reduced coord.    0.0000    0.0000    0.0000
,Next minimum=    2.5168E-02  at reduced coord.    0.0500    0.0000    0.0000
,  Integrated=    8.0000E+00
 Spin up density      [el/Bohr^3]
,     Maximum=    5.2260E-01  at reduced coord.    0.0000    0.8500    0.8500
,Next maximum=    5.2260E-01  at reduced coord.    0.8500    0.0000    0.8500
,     Minimum=    8.7201E-04  at reduced coord.    0.0000    0.0000    0.0000
,Next minimum=    1.6234E-02  at reduced coord.    0.5000    0.5000    0.0000
,  Integrated=    5.6921E+00
 Spin down density    [el/Bohr^3]
,     Maximum=    1.5874E-01  at reduced coord.    0.0000    0.8500    0.8500
,Next maximum=    1.5874E-01  at reduced coord.    0.8500    0.0000    0.8500
,     Minimum=    6.1197E-04  at reduced coord.    0.0000    0.0000    0.0000
,Next minimum=    4.9706E-03  at reduced coord.    0.0500    0.0000    0.0000
,  Integrated=    2.3079E+00
 Magnetization (spin up - spin down) [el/Bohr^3]
,     Maximum=    3.8512E-01  at reduced coord.    0.8000    0.9500    0.9500
,Next maximum=    3.8512E-01  at reduced coord.    0.9500    0.8000    0.9500
,     Minimum=   -3.3388E-03  at reduced coord.    0.5000    0.5000    0.0000
,Next minimum=   -3.3388E-03  at reduced coord.    0.5000    0.0000    0.5000
,  Integrated=    3.3842E+00
 Relative magnetization (=zeta, between -1 and 1)
,     Maximum=    6.3627E-01  at reduced coord.    0.8500    0.8500    0.8500
,Next maximum=    6.3627E-01  at reduced coord.    0.0000    0.0000    0.8500
,     Minimum=   -9.3247E-02  at reduced coord.    0.5000    0.5000    0.0000
,Next minimum=   -9.3247E-02  at reduced coord.    0.5000    0.0000    0.5000

================================================================================
== DATASET  3 ==================================================================
-   nproc =    1

 mkfilename : getwfk/=0, take file _WFK from output of DATASET   2.

 Exchange-correlation functional for the present dataset will be:
  GGA: Perdew-Burke-Ernzerhof functional - ixc=11
 Citation for XC functional:
  J.P.Perdew, K.Burke, M.Ernzerhof, PRL 77, 3865 (1996)

 Real(R)+Recip(G) space primitive vectors, cartesian coordinates (Bohr,Bohr^-1):
 R(1)= -2.7100000  2.7100000  2.7100000  G(1)=  0.0000000  0.1845018  0.1845018
 R(2)=  2.7100000 -2.7100000  2.7100000  G(2)=  0.1845018  0.0000000  0.1845018
 R(3)=  2.7100000  2.7100000 -2.7100000  G(3)=  0.1845018  0.1845018  0.0000000
 Unit cell volume ucvol=  7.9610044E+01 bohr^3
 Angles (23,13,12)=  1.09471221E+02  1.09471221E+02  1.09471221E+02 degrees
 setup1 : take into account q-point for computing boxcut.

 getcut: wavevector=  0.0000  0.0000  0.0000  ngfft=  20  20  20
         ecut(hartree)=     21.780   => boxcut(ratio)=   2.03324
--------------------------------------------------------------------------------

-inwffil : will read wavefunctions from disk file t59o_DS2_WFK
- newkpt: read input wf with ikpt,npw=   1     360, make ikpt,npw=   1     360
- newkpt: read input wf with ikpt,npw=   2     402, make ikpt,npw=   2     402
- newkpt: read input wf with ikpt,npw=   2     402, make ikpt,npw=   3     402
- newkpt: read input wf with ikpt,npw=   2     402, make ikpt,npw=   4     402
- newkpt: read input wf with ikpt,npw=   1     360, make ikpt,npw=   1     360
- newkpt: read input wf with ikpt,npw=   2     402, make ikpt,npw=   2     402
- newkpt: read input wf with ikpt,npw=   2     402, make ikpt,npw=   3     402
- newkpt: read input wf with ikpt,npw=   2     402, make ikpt,npw=   4     402

 symkchk : k-point set has full space-group symmetry.

 ==>  initialize data related to q vector <== 

 The list of irreducible perturbations for this q vector is:
    1)    idir= 1    ipert=   5

================================================================================

--------------------------------------------------------------------------------
 Perturbation wavevector (in red.coord.)   0.000000  0.000000  0.000000
 Found     8 symmetries that leave the perturbation invariant.
 symkpt : the number of k-points, thanks to the symmetries,
 is reduced to     3 .

--------------------------------------------------------------------------------

-inwffil : will read wavefunctions from disk file t59o_DS2_WFK
- newkpt: read input wf with ikpt,npw=   1     360, make ikpt,npw=   1     360
- newkpt: read input wf with ikpt,npw=   2     402, make ikpt,npw=   2     402
- newkpt: read input wf with ikpt,npw=   2     402, make ikpt,npw=   3     402
- newkpt: read input wf with ikpt,npw=   1     360, make ikpt,npw=   1     360
- newkpt: read input wf with ikpt,npw=   2     402, make ikpt,npw=   2     402
- newkpt: read input wf with ikpt,npw=   2     402, make ikpt,npw=   3     402

--------------------------------------------------------------------------------

-inwffil : will read wavefunctions from disk file t59o_DS2_WFK
- newkpt: read input wf with ikpt,npw=   1     360, make ikpt,npw=   1     360
- newkpt: read input wf with ikpt,npw=   2     402, make ikpt,npw=   2     402
- newkpt: read input wf with ikpt,npw=   2     402, make ikpt,npw=   3     402
- newkpt: read input wf with ikpt,npw=   1     360, make ikpt,npw=   1     360
- newkpt: read input wf with ikpt,npw=   2     402, make ikpt,npw=   2     402
- newkpt: read input wf with ikpt,npw=   2     402, make ikpt,npw=   3     402

 loper3 : total number of electrons, from k and k+q
  fully or partially occupied states are    8.000000E+00 and    8.000000E+00.
 Initialisation of the first-order wave-functions :
  ireadwf=   0
P newkpt: treating      8 bands with npw=     360 for ikpt=   1 by node    0
P newkpt: treating      8 bands with npw=     402 for ikpt=   2 by node    0
P newkpt: treating      8 bands with npw=     402 for ikpt=   3 by node    0
P newkpt: treating      8 bands with npw=     360 for ikpt=   1 by node    0
P newkpt: treating      8 bands with npw=     402 for ikpt=   2 by node    0
P newkpt: treating      8 bands with npw=     402 for ikpt=   3 by node    0


     iter   2DEtotal(Ha)        deltaE(Ha) residm    vres2
-ETOT  1   6.0697660975751     -4.211E+01 9.986E-01 2.295E+03
 ETOT  2   4.3878695379944     -1.682E+00 1.318E-02 2.741E+02
 ETOT  3   4.2029525213730     -1.849E-01 4.018E-04 4.922E+01
 ETOT  4   4.1792284673270     -2.372E-02 9.306E-04 3.777E+00
 ETOT  5   4.1746974138520     -4.531E-03 2.665E-05 3.212E-01
 ETOT  6   4.1744797135975     -2.177E-04 1.376E-05 4.721E-03
 ETOT  7   4.1744787197487     -9.938E-07 5.772E-07 8.522E-03
 ETOT  8   4.1744760709573     -2.649E-06 3.202E-07 3.004E-04
 ETOT  9   4.1744757802082     -2.907E-07 3.275E-08 2.242E-05
 ETOT 10   4.1744757703966     -9.812E-09 8.878E-09 1.075E-06
 ETOT 11   4.1744757704830      8.639E-11 1.297E-09 2.708E-06
 ETOT 12   4.1744757700395     -4.436E-10 2.644E-10 1.110E-07
 ETOT 13   4.1744757699859     -5.357E-11 2.359E-11 1.229E-06
 ETOT 14   4.1744757699232     -6.268E-11 2.658E-11 6.090E-09

 At SCF step   14       vres2   =  6.09E-09 < tolvrs=  1.00E-08 =>converged.
================================================================================

 ----iterations are completed or convergence reached----

 Mean square residual over all n,k,spin=  -2.5000E-02; max=  2.6583E-11
   0.2500  0.2500  0.2500    1  5.41370E-13 kpt; spin; max resid(k); each band:
  2.62E-14 4.24E-14 2.69E-14 1.10E-14 1.56E-14 5.41E-13-1.00E-01-1.00E-01
  -0.2500  0.2500  0.2500    1  8.21098E-14 kpt; spin; max resid(k); each band:
  2.79E-14 1.26E-14 4.19E-15 4.61E-15 8.21E-14 2.54E-14-1.00E-01-1.00E-01
   0.2500 -0.2500  0.2500    1  3.61896E-14 kpt; spin; max resid(k); each band:
  3.94E-15 1.20E-14 2.19E-14 2.19E-14 4.60E-15 3.62E-14-1.00E-01-1.00E-01
   0.2500  0.2500  0.2500    2  2.65832E-11 kpt; spin; max resid(k); each band:
  4.23E-13 6.27E-13 4.28E-13 3.03E-14 7.45E-14 2.66E-11-1.00E-01-1.00E-01
  -0.2500  0.2500  0.2500    2  3.36842E-13 kpt; spin; max resid(k); each band:
  5.28E-14 8.83E-14 2.09E-14 2.10E-14 3.37E-13 9.29E-14-1.00E-01-1.00E-01
   0.2500 -0.2500  0.2500    2  2.25204E-13 kpt; spin; max resid(k); each band:
  1.32E-14 2.25E-13 1.45E-13 1.45E-13 2.02E-14 1.61E-13-1.00E-01-1.00E-01

 Seventeen components of 2nd-order total energy (hartree) are
 1,2,3: 0th-order hamiltonian combined with 1st-order wavefunctions
     kin0=   4.05762809E+01 eigvalue=   2.17358341E+00  local=  -4.37158111E-01
 4,5,6,7: 1st-order hamiltonian combined with 1st and 0th-order wfs
 loc psp =  -6.16551476E-01  Hartree=   6.16591173E+00     xc=  -1.07360789E+00
     kin1=  -2.56353582E+01
 8,9,10: eventually, occupation + non-local contributions
    edocc=   6.49040743E-01     enl0=  -6.16594370E-01   enl1=  -6.51899901E+01
 1-10 gives the relaxation energy (to be shifted if some occ is /=2.0)
   erelax=  -4.40044433E+01
 11,12,13 Non-relaxation  contributions : frozen-wavefunctions and Ewald
  fr.hart=  -9.20288021E-02   fr.kin=   1.66360291E+01 fr.loc=  -5.20015899E+00
 14,15,16 Non-relaxation  contributions : frozen-wavefunctions and Ewald
  fr.nonl=   3.19687134E+01    fr.xc=   4.83167722E-01  Ewald=   4.38319674E+00
 17 Non-relaxation  contributions : pseudopotential core energy
  pspcore=   0.00000000E+00
 Resulting in :
 2DEtotal=    0.4174475770E+01 Ha. Also 2DEtotal=    0.113593262590E+03 eV
    (2DErelax=   -4.4004443338E+01 Ha. 2DEnonrelax=    4.8178919108E+01 Ha)
    (  non-var. 2DEtotal :    4.1744729469E+00 Ha)

================================================================================

 ---- first-order wavefunction calculations are completed ----


 ==> Compute Derivative Database <==
  
  2nd-order matrix (non-cartesian coordinates, masses not included,
   asr not included )
  cartesian coordinates for strain terms (1/ucvol factor 
   for elastic tensor components not included) 
     j1       j2             matrix element
  dir pert dir pert     real part     imaginary part
  
   1    1   2    3         0.0000000000         0.0000000000
   1    1   3    3         0.0000000000         0.0000000000
   1    1   1    5         0.0000000000         0.0000000000
  
   2    1   1    3         0.0000000000         0.0000000000
   2    1   3    3         0.0000000000         0.0000000000
   2    1   1    5         0.0000000000         0.0000000000
  
   3    1   1    3         0.0000000000         0.0000000000
   3    1   2    3         0.0000000000         0.0000000000
   3    1   1    5        -0.0000000000         0.0000000000
  
   1    3   2    1         0.0000000000         0.0000000000
   1    3   3    1         0.0000000000         0.0000000000
  
   2    3   1    1         0.0000000000         0.0000000000
   2    3   3    1         0.0000000000         0.0000000000
  
   3    3   1    1         0.0000000000         0.0000000000
   3    3   2    1         0.0000000000         0.0000000000
  
   1    4   1    5         0.0000000192         0.0000000000
  
   2    4   1    5         0.0000000368         0.0000000000
  
   3    4   1    5         0.0000000368         0.0000000000
  
   1    5   1    5         4.1744729469         0.0000000000
  
   2    5   1    5         0.0000000010         0.0000000000
  
   3    5   1    5        -0.0000000044         0.0000000000
  
  
  Rigid-atom elastic tensor , in cartesian coordinates,
     j1       j2             matrix element
  dir pert dir pert     real part    imaginary part
  
   1    4   1    5         0.0000000002         0.0000000000
  
   2    4   1    5         0.0000000005         0.0000000000
  
   3    4   1    5         0.0000000005         0.0000000000
  
   1    5   1    5         0.0524365110         0.0000000000
  
   2    5   1    5         0.0000000000         0.0000000000
  
   3    5   1    5        -0.0000000001         0.0000000000
  
  Internal strain coupling parameters, in cartesian coordinates,
   zero average net force deriv. has been imposed  
     j1       j2             matrix element
  dir pert dir pert     real part    imaginary part
  
   1    1   1    5        -0.0000000000         0.0000000000
  
   2    1   1    5        -0.0000000000         0.0000000000
  
   3    1   1    5        -0.0000000000         0.0000000000

== END DATASET(S) ==============================================================
================================================================================
  
 -outvars: echo values of variables after computation  --------
            acell      5.4200000000E+00  5.4200000000E+00  5.4200000000E+00 Bohr
              amu      5.58470000E+01
          dilatmx      1.10000000E+00
             ecut      1.80000000E+01 Hartree
           etotal1    -2.4854106707E+01
           etotal3     4.1744757699E+00
            fcart1    -0.0000000000E+00 -0.0000000000E+00 -0.0000000000E+00
            fcart3     0.0000000000E+00  0.0000000000E+00  0.0000000000E+00
-          fftalg         112
           getden1          0
           getden2         -1
           getden3          0
           getwfk1          0
           getwfk2         -1
           getwfk3         -1
             iscf1          5
             iscf2         -2
             iscf3          5
              ixc          11
           jdtset        1    2    3
              kpt1     2.50000000E-01  2.50000000E-01  2.50000000E-01
                      -2.50000000E-01  2.50000000E-01  2.50000000E-01
              kpt2     2.50000000E-01  2.50000000E-01  2.50000000E-01
                      -2.50000000E-01  2.50000000E-01  2.50000000E-01
              kpt3     2.50000000E-01  2.50000000E-01  2.50000000E-01
                      -2.50000000E-01  2.50000000E-01  2.50000000E-01
                       2.50000000E-01 -2.50000000E-01  2.50000000E-01
                      -2.50000000E-01 -2.50000000E-01  2.50000000E-01
           kptopt1          1
           kptopt2          1
           kptopt3          2
         kptrlatt        2    0    0      0    2    0      0    0    2
          kptrlen      9.38771538E+00
P           mkmem1          2
P           mkmem2          2
P           mkmem3          4
P          mkqmem1          2
P          mkqmem2          2
P          mkqmem3          4
P          mk1mem1          2
P          mk1mem2          2
P          mk1mem3          4
            natom           1
            nband1          8
            nband2          8
            nband3          8
           nbdbuf1          0
           nbdbuf2          2
           nbdbuf3          2
           ndtset           3
            ngfft          20      20      20
             nkpt1          2
             nkpt2          2
             nkpt3          4
             nqpt1          0
             nqpt2          0
             nqpt3          1
           nspden           2
           nsppol           2
            nstep          50
             nsym          48
           ntypat           1
              occ1     1.000000  1.000000  1.000000  0.999247  0.999247  0.000000
                       0.000000  0.000000
                       1.000000  0.999997  0.999980  0.999980  0.999703  0.923668
                       0.000000  0.000000
                       0.997790  0.997790  0.997790  0.002167  0.002167  0.000000
                       0.000000  0.000000
                       1.000000  0.869215  0.102911  0.102911  0.002806  0.000095
                       0.000000  0.000000
              occ3     1.000000  1.000000  1.000000  0.999247  0.999247  0.000000
                       0.000000  0.000000
                       1.000000  0.999997  0.999980  0.999980  0.999703  0.923668
                       0.000000  0.000000
                       1.000000  0.999997  0.999980  0.999980  0.999703  0.923668
                       0.000000  0.000000
                       1.000000  0.999997  0.999980  0.999980  0.999703  0.923668
                       0.000000  0.000000
                       0.997790  0.997790  0.997790  0.002167  0.002167  0.000000
                       0.000000  0.000000
                       1.000000  0.869215  0.102911  0.102911  0.002806  0.000095
                       0.000000  0.000000
                       1.000000  0.869215  0.102911  0.102911  0.002806  0.000095
                       0.000000  0.000000
                       1.000000  0.869215  0.102911  0.102911  0.002806  0.000095
                       0.000000  0.000000
           occopt           3
        optdriver1          0
        optdriver2          0
        optdriver3          1
            rfdir1          0       0       0
            rfdir2          0       0       0
            rfdir3          1       0       0
           rfstrs1          0
           rfstrs2          0
           rfstrs3          2
            rprim     -5.0000000000E-01  5.0000000000E-01  5.0000000000E-01
                       5.0000000000E-01 -5.0000000000E-01  5.0000000000E-01
                       5.0000000000E-01  5.0000000000E-01 -5.0000000000E-01
           shiftk      5.00000000E-01  5.00000000E-01  5.00000000E-01
          spgroup         229
           spinat1     0.0000000000E+00  0.0000000000E+00  4.0000000000E+00
           spinat2     0.0000000000E+00  0.0000000000E+00  0.0000000000E+00
           spinat3     0.0000000000E+00  0.0000000000E+00  0.0000000000E+00
           strten1     1.5287132413E-02  1.5287132413E-02  1.5287132413E-02
                       0.0000000000E+00  0.0000000000E+00  0.0000000000E+00
           strten3     0.0000000000E+00  0.0000000000E+00  0.0000000000E+00
                       0.0000000000E+00  0.0000000000E+00  0.0000000000E+00
           symrel      1  0  0   0  1  0   0  0  1      -1  0  0   0 -1  0   0  0 -1
                      -1 -1 -1   0  0  1   0  1  0       1  1  1   0  0 -1   0 -1  0
                       0  1  0   1  0  0  -1 -1 -1       0 -1  0  -1  0  0   1  1  1
                       0  0  1  -1 -1 -1   1  0  0       0  0 -1   1  1  1  -1  0  0
                       0  1  0   1  0  0   0  0  1       0 -1  0  -1  0  0   0  0 -1
                      -1 -1 -1   0  0  1   1  0  0       1  1  1   0  0 -1  -1  0  0
                       1  0  0   0  1  0  -1 -1 -1      -1  0  0   0 -1  0   1  1  1
                       0  0  1  -1 -1 -1   0  1  0       0  0 -1   1  1  1   0 -1  0
                      -1 -1 -1   1  0  0   0  0  1       1  1  1  -1  0  0   0  0 -1
                       0  1  0   0  0  1   1  0  0       0 -1  0   0  0 -1  -1  0  0
                       1  0  0  -1 -1 -1   0  1  0      -1  0  0   1  1  1   0 -1  0
                       0  0  1   0  1  0  -1 -1 -1       0  0 -1   0 -1  0   1  1  1
                       1  0  0  -1 -1 -1   0  0  1      -1  0  0   1  1  1   0  0 -1
                       0  1  0   0  0  1  -1 -1 -1       0 -1  0   0  0 -1   1  1  1
                      -1 -1 -1   1  0  0   0  1  0       1  1  1  -1  0  0   0 -1  0
                       0  0  1   0  1  0   1  0  0       0  0 -1   0 -1  0  -1  0  0
                       0  1  0  -1 -1 -1   0  0  1       0 -1  0   1  1  1   0  0 -1
                       1  0  0   0  0  1  -1 -1 -1      -1  0  0   0  0 -1   1  1  1
                      -1 -1 -1   0  1  0   1  0  0       1  1  1   0 -1  0  -1  0  0
                       0  0  1   1  0  0   0  1  0       0  0 -1  -1  0  0   0 -1  0
                      -1 -1 -1   0  1  0   0  0  1       1  1  1   0 -1  0   0  0 -1
                       1  0  0   0  0  1   0  1  0      -1  0  0   0  0 -1   0 -1  0
                       0  1  0  -1 -1 -1   1  0  0       0 -1  0   1  1  1  -1  0  0
                       0  0  1   1  0  0  -1 -1 -1       0  0 -1  -1  0  0   1  1  1
           tolvrs1     1.00000000E-10
           tolvrs2     0.00000000E+00
           tolvrs3     1.00000000E-08
           tolwfr1     0.00000000E+00
           tolwfr2     1.00000000E-08
           tolwfr3     0.00000000E+00
           tsmear      1.00000000E-02 Hartree
            typat      1
              wtk1       0.25000    0.75000
              wtk2       0.25000    0.75000
              wtk3       0.25000    0.25000    0.25000    0.25000
            znucl       26.00000

================================================================================


- Timing analysis has been suppressed with timopt=0



================================================================================

 Suggested references for the acknowledgment of ABINIT usage.

 The users of ABINIT have little formal obligations with respect to the ABINIT group
 (those specified in the GNU General Public License, http://www.gnu.org/copyleft/gpl.txt).
 However, it is common practice in the scientific literature,
 to acknowledge the efforts of people that have made the research possible.
 In this spirit, please find below suggested citations of work written by ABINIT developers,
 corresponding to implementations inside of ABINIT that you have used in the present run.
 Note also that it will be of great value to readers of publications presenting these results,
 to read papers enabling them to understand the theoretical formalism and details
 of the ABINIT implementation.
 For information on why they are suggested, see also http://www.abinit.org/about/?text=acknowledgments.

 [1] Metric tensor formulation of strain in density-functional perturbation theory, 
 D. R. Hamann, X. Wu, K. M. Rabe, and D. Vanderbilt, Phys. Rev. B71, 035117 (2005).
 Comment : Non-vanishing rfstrs. Strong suggestion to cite this paper in your publications.

 [2] ABINIT : First-principles approach of materials and nanosystem properties.
 X. Gonze, B. Amadon, P.-M. Anglade, J.-M. Beuken, F. Bottin, P. Boulanger, F. Bruneval,
 D. Caliste, R. Caracas, M. Cote, T. Deutsch, L. Genovese, Ph. Ghosez, M. Giantomassi
 S. Goedecker, D.R. Hamann, P. Hermet, F. Jollet, G. Jomard, S. Leroux, M. Mancini, S. Mazevet,
 M.J.T. Oliveira, G. Onida, Y. Pouillon, T. Rangel, G.-M. Rignanese, D. Sangalli, R. Shaltaf,
 M. Torrent, M.J. Verstraete, G. Zerah, J.W. Zwanziger
 Computer Phys. Comm. 180, 2582-2615 (2009).
 Comment : the third generic paper describing the ABINIT project.
 Note that a version of this paper, that is not formatted for Computer Phys. Comm. 
 is available at http://www.abinit.org/about/ABINIT_CPC_v10.pdf .
 The licence allows the authors to put it on the Web.

 [3] A brief introduction to the ABINIT software package.
 X. Gonze, G.-M. Rignanese, M. Verstraete, J.-M. Beuken, Y. Pouillon, R. Caracas, F. Jollet,
 M. Torrent, G. Zerah, M. Mikami, Ph. Ghosez, M. Veithen, J.-Y. Raty, V. Olevano, F. Bruneval,
 L. Reining, R. Godby, G. Onida, D.R. Hamann, and D.C. Allan.
 Z. Kristallogr. 220, 558-562 (2005).
 Comment : the second generic paper describing the ABINIT project. Note that this paper
 should be cited especially if you are using the GW part of ABINIT, as several authors
 of this part are not in the list of authors of the first or third paper.
 The .pdf of the latter paper is available at http://www.abinit.org/about/zfk_0505-06_558-562.pdf.
 Note that it should not redistributed (Copyright by Oldenburg Wissenshaftverlag,
 the licence allows the authors to put it on the Web).


 And optionally :

 [4] First-principles computation of material properties : the ABINIT software project. 
 X. Gonze, J.-M. Beuken, R. Caracas, F. Detraux, M. Fuchs, G.-M. Rignanese, L. Sindic,
 M. Verstraete, G. Zerah, F. Jollet, M. Torrent, A. Roy, M. Mikami, Ph. Ghosez, J.-Y. Raty, D.C. Allan.
 Computational Materials Science 25, 478-492 (2002). http://dx.doi.org/10.1016/S0927-0256(02)00325-7
 Comment : the original paper describing the ABINIT project.

 [5] Fast radix 2, 3, 4 and 5 kernels for Fast Fourier Transformations
 on computers with overlapping multiply-add instructions.
 S. Goedecker, SIAM J. on Scientific Computing 18, 1605 (1997).
-
- Proc.   0 individual time (sec): cpu=          3.9  wall=          3.9

================================================================================

 Calculation completed.
.Delivered   17 WARNINGs and   4 COMMENTs to log file.
+Overall time at end (sec) : cpu=          3.9  wall=          3.9
