
 **** DERIVATIVE DATABASE ****    
+DDB, Version number    100401

 alas_DDB                                                                                                                                                                                                                                                                

    usepaw         0
     natom         2
      nkpt        16
    nsppol         1
      nsym        24
    ntypat         2
    occopt         1
     nband         4
     acell  0.10616530850000D+02  0.10616530850000D+02  0.10616530850000D+02
       amu  0.26981539000000D+02  0.74921590000000D+02
   dilatmx  0.10000000000000D+01
      ecut  0.30000000000000D+01
    ecutsm  0.00000000000000D+00
     intxc         0
      iscf         5
       ixc         1
       kpt -0.25000000000000D+00  0.50000000000000D+00  0.00000000000000D+00
            0.50000000000000D+00 -0.25000000000000D+00  0.00000000000000D+00
           -0.25000000000000D+00 -0.25000000000000D+00  0.25000000000000D+00
           -0.25000000000000D+00  0.00000000000000D+00  0.00000000000000D+00
           -0.25000000000000D+00  0.25000000000000D+00  0.25000000000000D+00
            0.50000000000000D+00  0.50000000000000D+00  0.25000000000000D+00
           -0.25000000000000D+00  0.50000000000000D+00  0.50000000000000D+00
            0.00000000000000D+00 -0.25000000000000D+00  0.00000000000000D+00
            0.25000000000000D+00 -0.25000000000000D+00  0.25000000000000D+00
            0.50000000000000D+00 -0.25000000000000D+00  0.50000000000000D+00
           -0.25000000000000D+00 -0.25000000000000D+00 -0.25000000000000D+00
            0.50000000000000D+00  0.00000000000000D+00  0.25000000000000D+00
           -0.25000000000000D+00  0.00000000000000D+00  0.50000000000000D+00
            0.00000000000000D+00  0.50000000000000D+00  0.25000000000000D+00
            0.00000000000000D+00 -0.25000000000000D+00  0.50000000000000D+00
            0.00000000000000D+00  0.00000000000000D+00  0.25000000000000D+00
    kptnrm  0.10000000000000D+01
     ngfft        12   12   12
    nspden         1
   nspinor         1
       occ  0.20000000000000D+01  0.20000000000000D+01  0.20000000000000D+01
            0.20000000000000D+01
     rprim  0.00000000000000D+00  0.50000000000000D+00  0.50000000000000D+00
            0.50000000000000D+00  0.00000000000000D+00  0.50000000000000D+00
            0.50000000000000D+00  0.50000000000000D+00  0.00000000000000D+00
     sciss  0.00000000000000D+00
    spinat  0.00000000000000D+00  0.00000000000000D+00  0.00000000000000D+00
            0.00000000000000D+00  0.00000000000000D+00  0.00000000000000D+00
    symafm         1    1    1    1    1    1    1    1    1    1    1    1
                   1    1    1    1    1    1    1    1    1    1    1    1
    symrel         1    0    0    0    1    0    0    0    1
                   0   -1    1    0   -1    0    1   -1    0
                  -1    0    0   -1    0    1   -1    1    0
                   0    1   -1    1    0   -1    0    0   -1
                  -1    0    0   -1    1    0   -1    0    1
                   0   -1    1    1   -1    0    0   -1    0
                   1    0    0    0    0    1    0    1    0
                   0    1   -1    0    0   -1    1    0   -1
                  -1    0    1   -1    1    0   -1    0    0
                   0   -1    0    1   -1    0    0   -1    1
                   1    0   -1    0    0   -1    0    1   -1
                   0    1    0    0    0    1    1    0    0
                   1    0   -1    0    1   -1    0    0   -1
                   0   -1    0    0   -1    1    1   -1    0
                  -1    0    1   -1    0    0   -1    1    0
                   0    1    0    1    0    0    0    0    1
                   0    0   -1    0    1   -1    1    0   -1
                   1   -1    0    0   -1    1    0   -1    0
                   0    0    1    1    0    0    0    1    0
                  -1    1    0   -1    0    0   -1    0    1
                   0    0    1    0    1    0    1    0    0
                   1   -1    0    0   -1    0    0   -1    1
                   0    0   -1    1    0   -1    0    1   -1
                  -1    1    0   -1    0    1   -1    0    0
     tnons  0.00000000000000D+00  0.00000000000000D+00  0.00000000000000D+00
            0.00000000000000D+00  0.00000000000000D+00  0.00000000000000D+00
            0.00000000000000D+00  0.00000000000000D+00  0.00000000000000D+00
            0.00000000000000D+00  0.00000000000000D+00  0.00000000000000D+00
            0.00000000000000D+00  0.00000000000000D+00  0.00000000000000D+00
            0.00000000000000D+00  0.00000000000000D+00  0.00000000000000D+00
            0.00000000000000D+00  0.00000000000000D+00  0.00000000000000D+00
            0.00000000000000D+00  0.00000000000000D+00  0.00000000000000D+00
            0.00000000000000D+00  0.00000000000000D+00  0.00000000000000D+00
            0.00000000000000D+00  0.00000000000000D+00  0.00000000000000D+00
            0.00000000000000D+00  0.00000000000000D+00  0.00000000000000D+00
            0.00000000000000D+00  0.00000000000000D+00  0.00000000000000D+00
            0.00000000000000D+00  0.00000000000000D+00  0.00000000000000D+00
            0.00000000000000D+00  0.00000000000000D+00  0.00000000000000D+00
            0.00000000000000D+00  0.00000000000000D+00  0.00000000000000D+00
            0.00000000000000D+00  0.00000000000000D+00  0.00000000000000D+00
            0.00000000000000D+00  0.00000000000000D+00  0.00000000000000D+00
            0.00000000000000D+00  0.00000000000000D+00  0.00000000000000D+00
            0.00000000000000D+00  0.00000000000000D+00  0.00000000000000D+00
            0.00000000000000D+00  0.00000000000000D+00  0.00000000000000D+00
            0.00000000000000D+00  0.00000000000000D+00  0.00000000000000D+00
            0.00000000000000D+00  0.00000000000000D+00  0.00000000000000D+00
            0.00000000000000D+00  0.00000000000000D+00  0.00000000000000D+00
            0.00000000000000D+00  0.00000000000000D+00  0.00000000000000D+00
    tolwfr  0.10000000000000D+01
   tphysel  0.00000000000000D+00
    tsmear  0.40000000000000D-01
     typat         1    2
       wtk  0.62500000000000D-01  0.62500000000000D-01  0.62500000000000D-01
            0.62500000000000D-01  0.62500000000000D-01  0.62500000000000D-01
            0.62500000000000D-01  0.62500000000000D-01  0.62500000000000D-01
            0.62500000000000D-01  0.62500000000000D-01  0.62500000000000D-01
            0.62500000000000D-01  0.62500000000000D-01  0.62500000000000D-01
            0.62500000000000D-01
      xred  0.00000000000000D+00  0.00000000000000D+00  0.00000000000000D+00
            0.25000000000000D+00  0.25000000000000D+00  0.25000000000000D+00
     znucl  0.13000000000000D+02  0.33000000000000D+02
      zion  0.30000000000000D+01  0.50000000000000D+01
 
  Description of the potentials (KB energies)
  vrsio8 (for pseudopotentials)=100401
  usepaw =  0
  dimekb =  2       lmnmax=  2
  Atom type=    1   pspso=  0   nekb=   2
  iln lpsang iproj  ekb(:)
     1     0     1     2.5406576E+00  0.0000000E+00
     2     1     1     0.0000000E+00  1.3538152E+00
  Atom type=    2   pspso=  0   nekb=   1
  iln lpsang iproj  ekb(:)
     1     0     1     8.3875106E-01
 
 **** Database of total energy derivatives ****
 Number of data blocks=    3
  
 Total energy                 - # elements :       1
 -0.10094352445044D+02  0.00000000000000D+00
  
 1st derivatives              - # elements :      15
   1   1  0.00000000000000D+00  0.00000000000000D+00
   2   1  0.00000000000000D+00  0.00000000000000D+00
   3   1  0.00000000000000D+00  0.00000000000000D+00
   1   2  0.00000000000000D+00  0.00000000000000D+00
   2   2 -0.12161605622157D-29  0.00000000000000D+00
   3   2  0.00000000000000D+00  0.00000000000000D+00
   1   4  0.15367591927485D-01  0.00000000000000D+00
   2   4  0.15367591927832D-01  0.00000000000000D+00
   3   4  0.15367591927951D-01  0.00000000000000D+00
   1   5  0.25033117286354D-03  0.00000000000000D+00
   2   5  0.25033117286354D-03  0.00000000000000D+00
   3   5  0.25033117286354D-03  0.00000000000000D+00
   1   6  0.00000000000000D+00  0.00000000000000D+00
   2   6  0.00000000000000D+00  0.00000000000000D+00
   3   6  0.00000000000000D+00  0.00000000000000D+00
  
 2nd derivatives (non-stat.)  - # elements :     171
 qpt  0.00000000E+00  0.00000000E+00  0.00000000E+00   1.0
   1   1   1   1  0.53499081091209D+01  0.00000000000000D+00
   2   1   1   1  0.26749540545605D+01  0.00000000000000D+00
   3   1   1   1  0.26749540545605D+01  0.00000000000000D+00
   1   2   1   1 -0.53498672329911D+01 -0.17080156918315D-16
   2   2   1   1 -0.26749336164956D+01 -0.19780784009090D-17
   3   2   1   1 -0.26749336164956D+01 -0.78453927778537D-17
   1   4   1   1 -0.47224410104499D+01  0.00000000000000D+00
   2   4   1   1 -0.48885872310047D-16  0.00000000000000D+00
   3   4   1   1 -0.14738359530347D-16  0.00000000000000D+00
   1   1   2   1  0.26749540545605D+01  0.00000000000000D+00
   2   1   2   1  0.53499081091209D+01  0.00000000000000D+00
   3   1   2   1  0.26749540545605D+01  0.00000000000000D+00
   1   2   2   1 -0.26749336164956D+01 -0.19780784009090D-17
   2   2   2   1 -0.53498672329911D+01 -0.80990597890582D-17
   3   2   2   1 -0.26749336164956D+01 -0.33550507748332D-17
   1   4   2   1  0.00000000000000D+00  0.00000000000000D+00
   2   4   2   1 -0.47224410104499D+01  0.00000000000000D+00
   3   4   2   1 -0.54865009918042D-17  0.00000000000000D+00
   1   1   3   1  0.26749540545605D+01  0.00000000000000D+00
   2   1   3   1  0.26749540545605D+01  0.00000000000000D+00
   3   1   3   1  0.53499081091209D+01  0.00000000000000D+00
   1   2   3   1 -0.26749336164956D+01 -0.78453927778537D-17
   2   2   3   1 -0.26749336164956D+01 -0.33550507748332D-17
   3   2   3   1 -0.53498672329911D+01  0.77539622032582D-18
   1   4   3   1  0.00000000000000D+00  0.00000000000000D+00
   2   4   3   1  0.22851440139484D-16  0.00000000000000D+00
   3   4   3   1 -0.47224410104499D+01  0.00000000000000D+00
   1   1   1   2 -0.53498683526504D+01  0.17080156918315D-16
   2   1   1   2 -0.26749341763252D+01  0.19780784009090D-17
   3   1   1   2 -0.26749341763252D+01  0.78453927778537D-17
   1   2   1   2  0.53499266110064D+01  0.00000000000000D+00
   2   2   1   2  0.26749633055032D+01  0.00000000000000D+00
   3   2   1   2  0.26749633055032D+01  0.00000000000000D+00
   1   4   1   2 -0.45543065583533D+02  0.00000000000000D+00
   2   4   1   2 -0.96387719943378D-17  0.00000000000000D+00
   3   4   1   2 -0.51168891145352D-16  0.00000000000000D+00
   1   1   2   2 -0.26749341763252D+01  0.19780784009090D-17
   2   1   2   2 -0.53498683526504D+01  0.80990597890582D-17
   3   1   2   2 -0.26749341763252D+01  0.33550507748332D-17
   1   2   2   2  0.26749633055032D+01  0.00000000000000D+00
   2   2   2   2  0.53499266110064D+01  0.00000000000000D+00
   3   2   2   2  0.26749633055032D+01  0.00000000000000D+00
   1   4   2   2  0.00000000000000D+00  0.00000000000000D+00
   2   4   2   2 -0.45543065583533D+02  0.00000000000000D+00
   3   4   2   2 -0.18787386260452D-16  0.00000000000000D+00
   1   1   3   2 -0.26749341763252D+01  0.78453927778537D-17
   2   1   3   2 -0.26749341763252D+01  0.33550507748332D-17
   3   1   3   2 -0.53498683526504D+01 -0.77539622032582D-18
   1   2   3   2  0.26749633055032D+01  0.00000000000000D+00
   2   2   3   2  0.26749633055032D+01  0.00000000000000D+00
   3   2   3   2  0.53499266110064D+01  0.00000000000000D+00
   1   4   3   2  0.00000000000000D+00  0.00000000000000D+00
   2   4   3   2  0.47213544515241D-16  0.00000000000000D+00
   3   4   3   2 -0.45543065583533D+02  0.00000000000000D+00
   1   1   1   4 -0.47224421803570D+01  0.00000000000000D+00
   2   1   1   4  0.37007434154172D-16  0.00000000000000D+00
   3   1   1   4  0.00000000000000D+00  0.00000000000000D+00
   1   2   1   4 -0.45543068749485D+02  0.00000000000000D+00
   2   2   1   4 -0.29605947323338D-15  0.00000000000000D+00
   3   2   1   4 -0.29605947323338D-15  0.00000000000000D+00
   1   4   1   4 -0.14372490864366D+03  0.00000000000000D+00
   2   4   1   4  0.47908302881220D+02  0.00000000000000D+00
   3   4   1   4  0.47908302881220D+02  0.00000000000000D+00
   1   1   2   4 -0.14878017568577D-17  0.00000000000000D+00
   2   1   2   4 -0.47224421803570D+01  0.00000000000000D+00
   3   1   2   4  0.22851440130867D-16  0.00000000000000D+00
   1   2   2   4 -0.70446435134028D-16  0.00000000000000D+00
   2   2   2   4 -0.45543068749485D+02  0.00000000000000D+00
   3   2   2   4  0.47213544515241D-16  0.00000000000000D+00
   1   4   2   4  0.47908302881220D+02  0.00000000000000D+00
   2   4   2   4 -0.14372490864366D+03  0.00000000000000D+00
   3   4   2   4  0.47908302881220D+02  0.00000000000000D+00
   1   1   3   4  0.69743027486619D-17  0.00000000000000D+00
   2   1   3   4 -0.47398070587655D-16  0.00000000000000D+00
   3   1   3   4 -0.47224421803570D+01  0.00000000000000D+00
   1   2   3   4  0.89233821394480D-16  0.00000000000000D+00
   2   2   3   4  0.35686713637307D-15  0.00000000000000D+00
   3   2   3   4 -0.45543068749485D+02  0.00000000000000D+00
   1   4   3   4  0.47908302881220D+02  0.00000000000000D+00
   2   4   3   4  0.47908302881220D+02  0.00000000000000D+00
   3   4   3   4 -0.14372490864366D+03  0.00000000000000D+00
   1   1   1   5  0.21677795664918D-10  0.00000000000000D+00
   2   1   1   5 -0.22026412034041D-11  0.00000000000000D+00
   3   1   1   5 -0.23842920353486D-10  0.00000000000000D+00
   1   2   1   5 -0.19830551287869D-11  0.00000000000000D+00
   2   2   1   5 -0.29043626988244D-12  0.00000000000000D+00
   3   2   1   5  0.17999048433766D-11  0.00000000000000D+00
   1   4   1   5  0.00000000000000D+00  0.00000000000000D+00
   2   4   1   5  0.00000000000000D+00  0.00000000000000D+00
   3   4   1   5 -0.20816681711722D-16  0.00000000000000D+00
   1   5   1   5  0.14347599374982D+01  0.00000000000000D+00
   2   5   1   5  0.64853126274099D+00  0.00000000000000D+00
   3   5   1   5  0.64853126273852D+00  0.00000000000000D+00
   1   6   1   5 -0.47790641147499D-12  0.00000000000000D+00
   2   6   1   5  0.30276241040052D-14  0.00000000000000D+00
   3   6   1   5  0.92798540437907D-11  0.00000000000000D+00
   1   1   2   5  0.21668838826810D-10  0.00000000000000D+00
   2   1   2   5  0.15171421222750D-13  0.00000000000000D+00
   3   1   2   5 -0.21610951326285D-10  0.00000000000000D+00
   1   2   2   5 -0.18809568922744D-11  0.00000000000000D+00
   2   2   2   5  0.45171795846953D-13  0.00000000000000D+00
   3   2   2   5  0.21496798673112D-11  0.00000000000000D+00
   1   4   2   5 -0.69388939039072D-17  0.00000000000000D+00
   2   4   2   5  0.34694469519536D-17  0.00000000000000D+00
   3   4   2   5 -0.69388939039072D-17  0.00000000000000D+00
   1   5   2   5  0.64853378480932D+00  0.00000000000000D+00
   2   5   2   5  0.14347624356904D+01  0.00000000000000D+00
   3   5   2   5  0.64853378480439D+00  0.00000000000000D+00
   1   6   2   5 -0.92619499178999D-11  0.00000000000000D+00
   2   6   2   5 -0.62939766989819D-15  0.00000000000000D+00
   3   6   2   5  0.92768488093459D-11  0.00000000000000D+00
   1   1   3   5  0.23899528319972D-10  0.00000000000000D+00
   2   1   3   5  0.22580101967861D-11  0.00000000000000D+00
   3   1   3   5 -0.21620045818548D-10  0.00000000000000D+00
   1   2   3   5 -0.16667764218626D-11  0.00000000000000D+00
   2   2   3   5  0.25968007337530D-12  0.00000000000000D+00
   3   2   3   5  0.21253406663437D-11  0.00000000000000D+00
   1   4   3   5  0.00000000000000D+00  0.00000000000000D+00
   2   4   3   5  0.17347234759768D-17  0.00000000000000D+00
   3   4   3   5  0.00000000000000D+00  0.00000000000000D+00
   1   5   3   5  0.64853216336064D+00  0.00000000000000D+00
   2   5   3   5  0.64853216335818D+00  0.00000000000000D+00
   3   5   3   5  0.14347607339933D+01  0.00000000000000D+00
   1   6   3   5 -0.92611136505034D-11  0.00000000000000D+00
   2   6   3   5 -0.25645092434699D-14  0.00000000000000D+00
   3   6   3   5  0.48324257409112D-12  0.00000000000000D+00
   1   1   1   6 -0.13471791501633D-11  0.00000000000000D+00
   2   1   1   6 -0.82792970113291D+00  0.00000000000000D+00
   3   1   1   6 -0.82792970113424D+00  0.00000000000000D+00
   1   2   1   6  0.83843259460774D-13  0.00000000000000D+00
   2   2   1   6  0.82792190354635D+00  0.00000000000000D+00
   3   2   1   6  0.82792190354627D+00  0.00000000000000D+00
   1   4   1   6  0.20553605945496D+01  0.00000000000000D+00
   2   4   1   6 -0.20553605945496D+01  0.00000000000000D+00
   3   4   1   6 -0.20553605945496D+01  0.00000000000000D+00
   1   5   1   6  0.63419764223090D-07  0.00000000000000D+00
   2   5   1   6  0.60934941968251D-07  0.00000000000000D+00
   3   5   1   6  0.60934942868567D-07  0.00000000000000D+00
   1   6   1   6  0.91081711100768D+00  0.00000000000000D+00
   2   6   1   6  0.40612365539196D-11  0.00000000000000D+00
   3   6   1   6 -0.32915879778327D-14  0.00000000000000D+00
   1   1   2   6 -0.82792986048607D+00  0.00000000000000D+00
   2   1   2   6  0.76229187390499D-14  0.00000000000000D+00
   3   1   2   6 -0.82792986048874D+00  0.00000000000000D+00
   1   2   2   6  0.82792233890942D+00  0.00000000000000D+00
   2   2   2   6 -0.73330029099715D-14  0.00000000000000D+00
   3   2   2   6  0.82792233890937D+00  0.00000000000000D+00
   1   4   2   6 -0.20553601516043D+01  0.00000000000000D+00
   2   4   2   6  0.20553601516043D+01  0.00000000000000D+00
   3   4   2   6 -0.20553601516043D+01  0.00000000000000D+00
   1   5   2   6 -0.72730447723639D-07  0.00000000000000D+00
   2   5   2   6 -0.72277627137733D-07  0.00000000000000D+00
   3   5   2   6 -0.72730452179258D-07  0.00000000000000D+00
   1   6   2   6  0.40605113617519D-11  0.00000000000000D+00
   2   6   2   6  0.91081730152756D+00  0.00000000000000D+00
   3   6   2   6 -0.40638582697106D-11  0.00000000000000D+00
   1   1   3   6 -0.82792986228382D+00  0.00000000000000D+00
   2   1   3   6 -0.82792986228515D+00  0.00000000000000D+00
   3   1   3   6  0.13496674438713D-11  0.00000000000000D+00
   1   2   3   6  0.82792212553079D+00  0.00000000000000D+00
   2   2   3   6  0.82792212553080D+00  0.00000000000000D+00
   3   2   3   6  0.72735657409956D-13  0.00000000000000D+00
   1   4   3   6 -0.20553602502396D+01  0.00000000000000D+00
   2   4   3   6 -0.20553602502396D+01  0.00000000000000D+00
   3   4   3   6  0.20553602502396D+01  0.00000000000000D+00
   1   5   3   6  0.99717327527637D-07  0.00000000000000D+00
   2   5   3   6  0.99717324898717D-07  0.00000000000000D+00
   3   5   3   6  0.98839498249056D-07  0.00000000000000D+00
   1   6   3   6 -0.35121655841350D-14  0.00000000000000D+00
   2   6   3   6 -0.40631947298290D-11  0.00000000000000D+00
   3   6   3   6  0.91081732455423D+00  0.00000000000000D+00

 List of bloks and their characteristics 
  
 Total energy                 - # elements :       1
  
 1st derivatives              - # elements :      15
  
 2nd derivatives (non-stat.)  - # elements :     171
 qpt  0.00000000E+00  0.00000000E+00  0.00000000E+00   1.0
