
.Version 7.10.4 of ABINIT 
.(MPI version, prepared for a x86_64_linux_gnu4.7 computer) 

.Copyright (C) 1998-2014 ABINIT group . 
 ABINIT comes with ABSOLUTELY NO WARRANTY.
 It is free software, and you are welcome to redistribute it
 under certain conditions (GNU General Public License,
 see ~abinit/COPYING or http://www.gnu.org/copyleft/gpl.txt).

 ABINIT is a project of the Universite Catholique de Louvain,
 Corning Inc. and other collaborators, see ~abinit/doc/developers/contributors.txt .
 Please read ~abinit/doc/users/acknowledgments.html for suggested
 acknowledgments of the ABINIT effort.
 For more information, see http://www.abinit.org .

.Starting date : Wed 11 Mar 2015.
- ( at 10h26 )
  
- input  file    -> t79.in
- output file    -> t79.out
- root for input  files -> t79i
- root for output files -> t79o


 DATASET    1 : space group Im -3 m (#229); Bravais cI (body-center cubic)
================================================================================
 Values of the parameters that define the memory need for DATASET  1.
   intxc =         0  ionmov =         0    iscf =         5 xclevel =         1
  lmnmax =         2   lnmax =         2   mband =         8  mffmem =         1
P  mgfft =        20   mkmem =         2 mpssoang=         3     mpw =       402
  mqgrid =      3001   natom =         1    nfft =      8000    nkpt =         2
  nloalg =         4  nspden =         2 nspinor =         1  nsppol =         2
    nsym =        48  n1xccc =      2501  ntypat =         1  occopt =         3
================================================================================
P This job should need less than                       4.316 Mbytes of memory.
  Rough estimation (10% accuracy) of disk space for files :
_ WF disk file :      0.198 Mbytes ; DEN or POT disk file :      0.124 Mbytes.
================================================================================


 DATASET    2 : space group Im -3 m (#229); Bravais cI (body-center cubic)
================================================================================
 Values of the parameters that define the memory need for DATASET  2.
   intxc =         0  ionmov =         0    iscf =        -2 xclevel =         1
  lmnmax =         2   lnmax =         2   mband =         8  mffmem =         1
P  mgfft =        20   mkmem =         2 mpssoang=         3     mpw =       402
  mqgrid =      3001   natom =         1    nfft =      8000    nkpt =         2
  nloalg =         4  nspden =         2 nspinor =         1  nsppol =         2
    nsym =        48  n1xccc =      2501  ntypat =         1  occopt =         3
================================================================================
P This job should need less than                       3.095 Mbytes of memory.
  Rough estimation (10% accuracy) of disk space for files :
_ WF disk file :      0.198 Mbytes ; DEN or POT disk file :      0.124 Mbytes.
================================================================================


 DATASET    3 : space group Im -3 m (#229); Bravais cI (body-center cubic)
================================================================================
 Values of the parameters that define the memory need for DATASET  3 (RF).
   intxc =         0    iscf =         2 xclevel =         1  lmnmax =         2
   lnmax =         2   mband =         8  mffmem =         1   mgfft =        20
P  mkmem =         4  mkqmem =         4  mk1mem =         4 mpssoang=         3
     mpw =       402  mqgrid =      3001   natom =         1    nfft =      8000
    nkpt =         4  nloalg =         4  nspden =         2 nspinor =         1
  nsppol =         2    nsym =        48  n1xccc =      2501  ntypat =         1
  occopt =         3
================================================================================
P This job should need less than                       4.929 Mbytes of memory.
  Rough estimation (10% accuracy) of disk space for files :
_ WF disk file :      0.395 Mbytes ; DEN or POT disk file :      0.124 Mbytes.
================================================================================

--------------------------------------------------------------------------------
------------- Echo of variables that govern the present computation ------------
--------------------------------------------------------------------------------
-
- outvars: echo of selected default values                                      
-   accesswff0 =  0 , fftalg0 =112 , wfoptalg0 =  0
-
- outvars: echo of global parameters not present in the input file              
-  max_nthreads =    0
-
 -outvars: echo values of preprocessed input variables --------
            acell      5.4200000000E+00  5.4200000000E+00  5.4200000000E+00 Bohr
              amu      5.58470000E+01
          dilatmx      1.10000000E+00
             ecut      1.80000000E+01 Hartree
-          fftalg         112
           getden1          0
           getden2         -1
           getden3          0
           getwfk1          0
           getwfk2         -1
           getwfk3         -1
             iscf1          5
             iscf2         -2
             iscf3          2
           jdtset        1    2    3
              kpt1     2.50000000E-01  2.50000000E-01  2.50000000E-01
                      -2.50000000E-01  2.50000000E-01  2.50000000E-01
              kpt2     2.50000000E-01  2.50000000E-01  2.50000000E-01
                      -2.50000000E-01  2.50000000E-01  2.50000000E-01
              kpt3     2.50000000E-01  2.50000000E-01  2.50000000E-01
                      -2.50000000E-01  2.50000000E-01  2.50000000E-01
                       2.50000000E-01 -2.50000000E-01  2.50000000E-01
                      -2.50000000E-01 -2.50000000E-01  2.50000000E-01
           kptopt1          1
           kptopt2          1
           kptopt3          2
         kptrlatt        2    0    0      0    2    0      0    0    2
          kptrlen      9.38771538E+00
P           mkmem1          2
P           mkmem2          2
P           mkmem3          4
P          mkqmem1          2
P          mkqmem2          2
P          mkqmem3          4
P          mk1mem1          2
P          mk1mem2          2
P          mk1mem3          4
            natom           1
            nband1          8
            nband2          8
            nband3          8
           nbdbuf1          0
           nbdbuf2          2
           nbdbuf3          2
           ndtset           3
            ngfft          20      20      20
             nkpt1          2
             nkpt2          2
             nkpt3          4
             nqpt1          0
             nqpt2          0
             nqpt3          1
           nspden           2
           nsppol           2
            nstep          50
             nsym          48
           ntypat           1
              occ1     1.000000  1.000000  1.000000  1.000000  0.000000  0.000000
                       0.000000  0.000000
                       1.000000  1.000000  1.000000  1.000000  0.000000  0.000000
                       0.000000  0.000000
                       1.000000  1.000000  1.000000  1.000000  0.000000  0.000000
                       0.000000  0.000000
                       1.000000  1.000000  1.000000  1.000000  0.000000  0.000000
                       0.000000  0.000000
              occ3     1.000000  1.000000  1.000000  1.000000  0.000000  0.000000
                       0.000000  0.000000
                       1.000000  1.000000  1.000000  1.000000  0.000000  0.000000
                       0.000000  0.000000
                       1.000000  1.000000  1.000000  1.000000  0.000000  0.000000
                       0.000000  0.000000
                       1.000000  1.000000  1.000000  1.000000  0.000000  0.000000
                       0.000000  0.000000
                       1.000000  1.000000  1.000000  1.000000  0.000000  0.000000
                       0.000000  0.000000
                       1.000000  1.000000  1.000000  1.000000  0.000000  0.000000
                       0.000000  0.000000
                       1.000000  1.000000  1.000000  1.000000  0.000000  0.000000
                       0.000000  0.000000
                       1.000000  1.000000  1.000000  1.000000  0.000000  0.000000
                       0.000000  0.000000
           occopt           3
        optdriver1          0
        optdriver2          0
        optdriver3          1
            rfdir1          0       0       0
            rfdir2          0       0       0
            rfdir3          1       0       0
           rfstrs1          0
           rfstrs2          0
           rfstrs3          3
            rprim     -5.0000000000E-01  5.0000000000E-01  5.0000000000E-01
                       5.0000000000E-01 -5.0000000000E-01  5.0000000000E-01
                       5.0000000000E-01  5.0000000000E-01 -5.0000000000E-01
           shiftk      5.00000000E-01  5.00000000E-01  5.00000000E-01
          spgroup         229
           spinat1     0.0000000000E+00  0.0000000000E+00  4.0000000000E+00
           spinat2     0.0000000000E+00  0.0000000000E+00  0.0000000000E+00
           spinat3     0.0000000000E+00  0.0000000000E+00  0.0000000000E+00
           symrel      1  0  0   0  1  0   0  0  1      -1  0  0   0 -1  0   0  0 -1
                      -1 -1 -1   0  0  1   0  1  0       1  1  1   0  0 -1   0 -1  0
                       0  1  0   1  0  0  -1 -1 -1       0 -1  0  -1  0  0   1  1  1
                       0  0  1  -1 -1 -1   1  0  0       0  0 -1   1  1  1  -1  0  0
                       0  1  0   1  0  0   0  0  1       0 -1  0  -1  0  0   0  0 -1
                      -1 -1 -1   0  0  1   1  0  0       1  1  1   0  0 -1  -1  0  0
                       1  0  0   0  1  0  -1 -1 -1      -1  0  0   0 -1  0   1  1  1
                       0  0  1  -1 -1 -1   0  1  0       0  0 -1   1  1  1   0 -1  0
                      -1 -1 -1   1  0  0   0  0  1       1  1  1  -1  0  0   0  0 -1
                       0  1  0   0  0  1   1  0  0       0 -1  0   0  0 -1  -1  0  0
                       1  0  0  -1 -1 -1   0  1  0      -1  0  0   1  1  1   0 -1  0
                       0  0  1   0  1  0  -1 -1 -1       0  0 -1   0 -1  0   1  1  1
                       1  0  0  -1 -1 -1   0  0  1      -1  0  0   1  1  1   0  0 -1
                       0  1  0   0  0  1  -1 -1 -1       0 -1  0   0  0 -1   1  1  1
                      -1 -1 -1   1  0  0   0  1  0       1  1  1  -1  0  0   0 -1  0
                       0  0  1   0  1  0   1  0  0       0  0 -1   0 -1  0  -1  0  0
                       0  1  0  -1 -1 -1   0  0  1       0 -1  0   1  1  1   0  0 -1
                       1  0  0   0  0  1  -1 -1 -1      -1  0  0   0  0 -1   1  1  1
                      -1 -1 -1   0  1  0   1  0  0       1  1  1   0 -1  0  -1  0  0
                       0  0  1   1  0  0   0  1  0       0  0 -1  -1  0  0   0 -1  0
                      -1 -1 -1   0  1  0   0  0  1       1  1  1   0 -1  0   0  0 -1
                       1  0  0   0  0  1   0  1  0      -1  0  0   0  0 -1   0 -1  0
                       0  1  0  -1 -1 -1   1  0  0       0 -1  0   1  1  1  -1  0  0
                       0  0  1   1  0  0  -1 -1 -1       0  0 -1  -1  0  0   1  1  1
           tolvrs1     1.00000000E-10
           tolvrs2     0.00000000E+00
           tolvrs3     1.00000000E-08
           tolwfr1     0.00000000E+00
           tolwfr2     1.00000000E-08
           tolwfr3     0.00000000E+00
           tsmear      1.00000000E-02 Hartree
            typat      1
              wtk1       0.25000    0.75000
              wtk2       0.25000    0.75000
              wtk3       0.25000    0.25000    0.25000    0.25000
            znucl       26.00000

================================================================================

 chkinp: Checking input parameters for consistency, jdtset=   1.

 chkinp: Checking input parameters for consistency, jdtset=   2.

 chkinp: Checking input parameters for consistency, jdtset=   3.

================================================================================
== DATASET  1 ==================================================================
-   nproc =    1

 Exchange-correlation functional for the present dataset will be:
  LDA: new Teter (4/93) with spin-polarized option - ixc=1
 Citation for XC functional:
  S. Goedecker, M. Teter, J. Huetter, PRB 54, 1703 (1996)

 Real(R)+Recip(G) space primitive vectors, cartesian coordinates (Bohr,Bohr^-1):
 R(1)= -2.7100000  2.7100000  2.7100000  G(1)=  0.0000000  0.1845018  0.1845018
 R(2)=  2.7100000 -2.7100000  2.7100000  G(2)=  0.1845018  0.0000000  0.1845018
 R(3)=  2.7100000  2.7100000 -2.7100000  G(3)=  0.1845018  0.1845018  0.0000000
 Unit cell volume ucvol=  7.9610044E+01 bohr^3
 Angles (23,13,12)=  1.09471221E+02  1.09471221E+02  1.09471221E+02 degrees

 getcut: wavevector=  0.0000  0.0000  0.0000  ngfft=  20  20  20
         ecut(hartree)=     21.780   => boxcut(ratio)=   2.03324

--- Pseudopotential description ------------------------------------------------
- pspini: atom type   1  psp file is /home/gonze/ABINIT/ABINITv7.10.4/trunk/7.10.4-private/tests/Psps_for_tests/26fe.pspnc
- pspatm: opening atomic psp file    /home/gonze/ABINIT/ABINITv7.10.4/trunk/7.10.4-private/tests/Psps_for_tests/26fe.pspnc
-  Troullier-Martins psp for element  Fe        Thu Oct 27 17:35:05 EDT 1994
- 26.00000   8.00000    940714                znucl, zion, pspdat
    1    1    2    0      2001   0.00000      pspcod,pspxc,lmax,lloc,mmax,r2well
    0   4.333  10.868    0   2.2918558        l,e99.0,e99.9,nproj,rcpsp
   0.00000000   0.00000000   0.00000000   0.00000000     rms, ekb1, ekb2, epsatm
    1   1.213   4.197    1   2.8345121        l,e99.0,e99.9,nproj,rcpsp
   0.00000000   0.00000000   0.00000000   0.00000000     rms, ekb1, ekb2, epsatm
    2  18.664  23.972    1   2.2918558        l,e99.0,e99.9,nproj,rcpsp
   0.00000000   0.00000000   0.00000000   0.00000000     rms, ekb1, ekb2, epsatm
    1.56404770202776    2.06158206779471    6.88331421535388   rchrg,fchrg,qchrg
 pspatm: epsatm=   62.03296659
         --- l  ekb(1:nproj) -->
             1    1.561134
             2   -8.115829
 pspatm: atomic psp has been read  and splines computed

   4.96263733E+02                                ecore*ucvol(ha*bohr**3)
--------------------------------------------------------------------------------

P newkpt: treating      8 bands with npw=     360 for ikpt=   1 by node    0
P newkpt: treating      8 bands with npw=     402 for ikpt=   2 by node    0
P newkpt: treating      8 bands with npw=     360 for ikpt=   1 by node    0
P newkpt: treating      8 bands with npw=     402 for ikpt=   2 by node    0

_setup2: Arith. and geom. avg. npw (full set) are     391.500     391.062

================================================================================

     iter   Etot(hartree)     deltaE(h) residm    vres2    magn
 ETOT  1  -23.445956456682    -2.34E+01 5.39E-02 3.23E+03 1.999
 ETOT  2  -23.903547411810    -4.58E-01 6.90E-04 1.90E+03 0.607
 ETOT  3  -24.681492840382    -7.78E-01 2.57E-02 2.05E+01 2.401
 ETOT  4  -24.686365413246    -4.87E-03 8.15E-04 3.08E+00 2.451
 ETOT  5  -24.687388440879    -1.02E-03 3.06E-04 1.28E+01 2.599
 ETOT  6  -24.687991689382    -6.03E-04 8.36E-05 4.22E+00 2.556
 ETOT  7  -24.689914217669    -1.92E-03 9.07E-05 1.72E+00 2.953
 ETOT  8  -24.689947367466    -3.31E-05 1.66E-06 1.41E+00 2.909
 ETOT  9  -24.690588592839    -6.41E-04 1.05E-04 1.67E+00 3.129
 ETOT 10  -24.691445118312    -8.57E-04 5.73E-05 8.26E-02 3.343
 ETOT 11  -24.691035286366     4.10E-04 1.10E-05 8.69E-01 3.425
 ETOT 12  -24.691296781644    -2.61E-04 4.84E-06 4.35E-01 3.394
 ETOT 13  -24.691311808522    -1.50E-05 2.93E-07 6.32E-01 3.385
 ETOT 14  -24.691443133834    -1.31E-04 1.32E-05 8.63E-02 3.324
 ETOT 15  -24.691450520216    -7.39E-06 6.04E-06 6.92E-02 3.314
 ETOT 16  -24.691465745666    -1.52E-05 2.30E-06 6.82E-02 3.286
 ETOT 17  -24.691469223086    -3.48E-06 6.93E-08 5.23E-02 3.297
 ETOT 18  -24.691476093204    -6.87E-06 8.73E-07 2.44E-03 3.306
 ETOT 19  -24.691476936403    -8.43E-07 5.44E-08 1.17E-04 3.308
 ETOT 20  -24.691476991476    -5.51E-08 3.28E-09 1.84E-05 3.308
 ETOT 21  -24.691477007415    -1.59E-08 2.54E-09 1.38E-05 3.307
 ETOT 22  -24.691477012798    -5.38E-09 4.13E-10 1.41E-05 3.307
 ETOT 23  -24.691477016027    -3.23E-09 1.53E-10 2.86E-07 3.307
 ETOT 24  -24.691477016232    -2.05E-10 7.67E-12 9.36E-09 3.306
 ETOT 25  -24.691477016235    -2.92E-12 1.05E-12 4.51E-09 3.306
 ETOT 26  -24.691477016236    -1.01E-12 1.57E-13 8.47E-10 3.306
 ETOT 27  -24.691477016237    -8.49E-13 7.05E-14 2.29E-10 3.306
 ETOT 28  -24.691477016237    -2.77E-13 3.46E-14 7.23E-12 3.306

 At SCF step   28       vres2   =  7.23E-12 < tolvrs=  1.00E-10 =>converged.

 Cartesian components of stress tensor (hartree/bohr^3)
  sigma(1 1)=  1.61389172E-02  sigma(3 2)=  0.00000000E+00
  sigma(2 2)=  1.61389172E-02  sigma(3 1)=  0.00000000E+00
  sigma(3 3)=  1.61389172E-02  sigma(2 1)=  0.00000000E+00

================================================================================

 ----iterations are completed or convergence reached----

 Mean square residual over all n,k,spin=   9.7153E-15; max=  3.4606E-14
   0.2500  0.2500  0.2500    1  3.56333E-15 kpt; spin; max resid(k); each band:
  3.56E-15 3.56E-15 3.56E-15 1.01E-17 1.00E-17 3.55E-15 3.55E-15 3.55E-15
  -0.2500  0.2500  0.2500    1  1.26300E-15 kpt; spin; max resid(k); each band:
  6.70E-16 1.69E-17 1.26E-15 1.26E-15 5.73E-19 6.35E-16 1.26E-15 1.26E-15
   0.2500  0.2500  0.2500    2  3.46063E-14 kpt; spin; max resid(k); each band:
  3.22E-14 3.22E-14 3.22E-14 2.32E-17 2.32E-17 3.22E-14 3.46E-14 3.22E-14
  -0.2500  0.2500  0.2500    2  1.76291E-14 kpt; spin; max resid(k); each band:
  8.29E-15 3.42E-16 1.76E-14 1.76E-14 4.67E-17 8.49E-15 1.76E-14 1.76E-14
 reduced coordinates (array xred) for    1 atoms
       0.000000000000      0.000000000000      0.000000000000
 rms dE/dt=  0.0000E+00; max dE/dt=  0.0000E+00; dE/dt below (all hartree)
    1       0.000000000000      0.000000000000      0.000000000000

 cartesian coordinates (angstrom) at end:
    1      0.00000000000000     0.00000000000000     0.00000000000000

 cartesian forces (hartree/bohr) at end:
    1     -0.00000000000000    -0.00000000000000    -0.00000000000000
 frms,max,avg= 0.0000000E+00 0.0000000E+00   0.000E+00  0.000E+00  0.000E+00 h/b

 cartesian forces (eV/Angstrom) at end:
    1     -0.00000000000000    -0.00000000000000    -0.00000000000000
 frms,max,avg= 0.0000000E+00 0.0000000E+00   0.000E+00  0.000E+00  0.000E+00 e/A
 length scales=  5.420000000000  5.420000000000  5.420000000000 bohr
              =  2.868140470558  2.868140470558  2.868140470558 angstroms
 prteigrs : about to open file t79o_DS1_EIG
 Fermi (or HOMO) energy (hartree) =  -0.26293   Average Vxc (hartree)=  -0.51533
 Magnetization (Bohr magneton)=  3.30643473E+00
 Total spin up =  5.65321737E+00   Total spin down =  2.34678263E+00
 Eigenvalues (hartree) for nkpt=   2  k points, SPIN UP:
 kpt#   1, nband=  8, wtk=  0.25000, kpt=  0.2500  0.2500  0.2500 (reduced coord)
  -0.42354  -0.42354  -0.42354  -0.32498  -0.32498   0.02551   0.02551   0.02551
      occupation numbers for kpt#   1
   1.00000   1.00000   1.00000   0.99799   0.99799   0.00000   0.00000   0.00000
 kpt#   2, nband=  8, wtk=  0.75000, kpt= -0.2500  0.2500  0.2500 (reduced coord)
  -0.46950  -0.38316  -0.36188  -0.36188  -0.33292  -0.28223   0.33993   0.33993
      occupation numbers for kpt#   2
   1.00000   0.99999   0.99995   0.99995   0.99909   0.87332   0.00000   0.00000
 Eigenvalues (hartree) for nkpt=   2  k points, SPIN DOWN:
 kpt#   1, nband=  8, wtk=  0.25000, kpt=  0.2500  0.2500  0.2500 (reduced coord)
  -0.32720  -0.32720  -0.32720  -0.19969  -0.19969   0.09176   0.09176   0.09176
      occupation numbers for kpt#   1
   0.99839   0.99839   0.99839   0.00179   0.00179   0.00000   0.00000   0.00000
 kpt#   2, nband=  8, wtk=  0.75000, kpt= -0.2500  0.2500  0.2500 (reduced coord)
  -0.42373  -0.27969  -0.24491  -0.24491  -0.20697  -0.17002   0.39880   0.39880
      occupation numbers for kpt#   2
   1.00000   0.84238   0.14165   0.14165   0.00370   0.00009   0.00000   0.00000
 Total charge density [el/Bohr^3]
,     Maximum=    6.5931E-01  at reduced coord.    0.0000    0.8500    0.8500
,Next maximum=    6.5931E-01  at reduced coord.    0.8500    0.0000    0.8500
,     Minimum=    1.5247E-03  at reduced coord.    0.0000    0.0000    0.0000
,Next minimum=    2.5156E-02  at reduced coord.    0.0500    0.0000    0.0000
,  Integrated=    8.0000E+00
 Spin up density      [el/Bohr^3]
,     Maximum=    5.0678E-01  at reduced coord.    0.0000    0.8500    0.8500
,Next maximum=    5.0678E-01  at reduced coord.    0.8500    0.0000    0.8500
,     Minimum=    8.8370E-04  at reduced coord.    0.0000    0.0000    0.0000
,Next minimum=    1.6701E-02  at reduced coord.    0.5000    0.5000    0.0000
,  Integrated=    5.6532E+00
 Spin down density    [el/Bohr^3]
,     Maximum=    1.5253E-01  at reduced coord.    0.0000    0.8500    0.8500
,Next maximum=    1.5253E-01  at reduced coord.    0.8500    0.0000    0.8500
,     Minimum=    6.4098E-04  at reduced coord.    0.0000    0.0000    0.0000
,Next minimum=    5.3173E-03  at reduced coord.    0.0500    0.0000    0.0000
,  Integrated=    2.3468E+00
 Magnetization (spin up - spin down) [el/Bohr^3]
,     Maximum=    3.6819E-01  at reduced coord.    0.8000    0.9500    0.9500
,Next maximum=    3.6819E-01  at reduced coord.    0.9500    0.8000    0.9500
,     Minimum=   -1.9857E-03  at reduced coord.    0.5000    0.5000    0.0000
,Next minimum=   -1.9857E-03  at reduced coord.    0.5000    0.0000    0.5000
,  Integrated=    3.3064E+00
 Relative magnetization (=zeta, between -1 and 1)
,     Maximum=    6.0852E-01  at reduced coord.    0.8500    0.8500    0.8500
,Next maximum=    6.0852E-01  at reduced coord.    0.0000    0.0000    0.8500
,     Minimum=   -5.6114E-02  at reduced coord.    0.5000    0.5000    0.0000
,Next minimum=   -5.6114E-02  at reduced coord.    0.5000    0.0000    0.5000

--------------------------------------------------------------------------------
 Components of total free energy (in Hartree) :

    Kinetic energy  =  2.46230734249036E+01
    Hartree energy  =  2.49107528770364E+00
    XC energy       = -1.05367761396224E+01
    Ewald energy    = -2.14862491483900E+01
    PspCore energy  =  6.23368243229498E+00
    Loc. psp. energy=  2.08991423922813E+00
    NL   psp  energy= -2.80934781287074E+01
    >>>>> Internal E= -2.46787580325895E+01

    -kT*entropy     = -1.27189836473594E-02
    >>>>>>>>> Etotal= -2.46914770162369E+01

 Other information on the energy :
    Total energy(eV)= -6.71889259159189E+02 ; Band energy (Ha)=  -2.8887408813E+00
--------------------------------------------------------------------------------

 Cartesian components of stress tensor (hartree/bohr^3)
  sigma(1 1)=  1.61389172E-02  sigma(3 2)=  0.00000000E+00
  sigma(2 2)=  1.61389172E-02  sigma(3 1)=  0.00000000E+00
  sigma(3 3)=  1.61389172E-02  sigma(2 1)=  0.00000000E+00

-Cartesian components of stress tensor (GPa)         [Pressure= -4.7482E+02 GPa]
- sigma(1 1)=  4.74823257E+02  sigma(3 2)=  0.00000000E+00
- sigma(2 2)=  4.74823257E+02  sigma(3 1)=  0.00000000E+00
- sigma(3 3)=  4.74823257E+02  sigma(2 1)=  0.00000000E+00

================================================================================
== DATASET  2 ==================================================================
-   nproc =    1

 mkfilename : getwfk/=0, take file _WFK from output of DATASET   1.

 mkfilename : getden/=0, take file _DEN from output of DATASET   1.

 Exchange-correlation functional for the present dataset will be:
  LDA: new Teter (4/93) with spin-polarized option - ixc=1
 Citation for XC functional:
  S. Goedecker, M. Teter, J. Huetter, PRB 54, 1703 (1996)

 Real(R)+Recip(G) space primitive vectors, cartesian coordinates (Bohr,Bohr^-1):
 R(1)= -2.7100000  2.7100000  2.7100000  G(1)=  0.0000000  0.1845018  0.1845018
 R(2)=  2.7100000 -2.7100000  2.7100000  G(2)=  0.1845018  0.0000000  0.1845018
 R(3)=  2.7100000  2.7100000 -2.7100000  G(3)=  0.1845018  0.1845018  0.0000000
 Unit cell volume ucvol=  7.9610044E+01 bohr^3
 Angles (23,13,12)=  1.09471221E+02  1.09471221E+02  1.09471221E+02 degrees

 getcut: wavevector=  0.0000  0.0000  0.0000  ngfft=  20  20  20
         ecut(hartree)=     21.780   => boxcut(ratio)=   2.03324
--------------------------------------------------------------------------------

-inwffil : will read wavefunctions from disk file t79o_DS1_WFK
P newkpt: treating      8 bands with npw=     360 for ikpt=   1 by node    0
P newkpt: treating      8 bands with npw=     402 for ikpt=   2 by node    0
P newkpt: treating      8 bands with npw=     360 for ikpt=   1 by node    0
P newkpt: treating      8 bands with npw=     402 for ikpt=   2 by node    0


================================================================================
 prteigrs : about to open file t79o_DS2_EIG

 SPIN UP channel
 Non-SCF case, kpt    1 (  0.25000  0.25000  0.25000), residuals and eigenvalues=
  1.08E-16  1.08E-16  1.08E-16  2.78E-16  2.78E-16  7.54E-17  7.52E-17  7.45E-17
 -4.2354E-01 -4.2354E-01 -4.2354E-01 -3.2498E-01 -3.2498E-01  2.5514E-02
  2.5514E-02  2.5514E-02
 Non-SCF case, kpt    2 ( -0.25000  0.25000  0.25000), residuals and eigenvalues=
  1.72E-16  2.71E-16  1.08E-16  1.08E-16  1.14E-16  3.12E-16  9.27E-17  9.27E-17
 -4.6950E-01 -3.8316E-01 -3.6188E-01 -3.6188E-01 -3.3292E-01 -2.8223E-01
  3.3993E-01  3.3993E-01

 SPIN DOWN channel
 Non-SCF case, kpt    1 (  0.25000  0.25000  0.25000), residuals and eigenvalues=
  2.67E-16  2.67E-16  2.67E-16  3.94E-16  3.94E-16  9.86E-16  7.06E-15  1.25E-15
 -3.2720E-01 -3.2720E-01 -3.2720E-01 -1.9969E-01 -1.9969E-01  9.1762E-02
  9.1762E-02  9.1762E-02
 Non-SCF case, kpt    2 ( -0.25000  0.25000  0.25000), residuals and eigenvalues=
  1.69E-16  3.19E-16  2.37E-16  2.37E-16  2.29E-16  4.72E-16  2.65E-16  2.75E-16
 -4.2373E-01 -2.7969E-01 -2.4491E-01 -2.4491E-01 -2.0697E-01 -1.7002E-01
  3.9880E-01  3.9880E-01
================================================================================

 ----iterations are completed or convergence reached----

 Mean square residual over all n,k,spin=   4.8322E-16; max=  7.0580E-15
   0.2500  0.2500  0.2500    1  2.77869E-16 kpt; spin; max resid(k); each band:
  1.08E-16 1.08E-16 1.08E-16 2.78E-16 2.78E-16 7.54E-17 7.52E-17 7.45E-17
  -0.2500  0.2500  0.2500    1  3.12122E-16 kpt; spin; max resid(k); each band:
  1.72E-16 2.71E-16 1.08E-16 1.08E-16 1.14E-16 3.12E-16 9.27E-17 9.27E-17
   0.2500  0.2500  0.2500    2  7.05797E-15 kpt; spin; max resid(k); each band:
  2.67E-16 2.67E-16 2.67E-16 3.94E-16 3.94E-16 9.86E-16 7.06E-15 1.25E-15
  -0.2500  0.2500  0.2500    2  4.72079E-16 kpt; spin; max resid(k); each band:
  1.69E-16 3.19E-16 2.37E-16 2.37E-16 2.29E-16 4.72E-16 2.65E-16 2.75E-16
 reduced coordinates (array xred) for    1 atoms
       0.000000000000      0.000000000000      0.000000000000

 cartesian coordinates (angstrom) at end:
    1      0.00000000000000     0.00000000000000     0.00000000000000
 length scales=  5.420000000000  5.420000000000  5.420000000000 bohr
              =  2.868140470558  2.868140470558  2.868140470558 angstroms
 prteigrs : about to open file t79o_DS2_EIG
 Eigenvalues (hartree) for nkpt=   2  k points, SPIN UP:
 kpt#   1, nband=  8, wtk=  0.25000, kpt=  0.2500  0.2500  0.2500 (reduced coord)
  -0.42354  -0.42354  -0.42354  -0.32498  -0.32498   0.02551   0.02551   0.02551
 kpt#   2, nband=  8, wtk=  0.75000, kpt= -0.2500  0.2500  0.2500 (reduced coord)
  -0.46950  -0.38316  -0.36188  -0.36188  -0.33292  -0.28223   0.33993   0.33993
 Eigenvalues (hartree) for nkpt=   2  k points, SPIN DOWN:
 kpt#   1, nband=  8, wtk=  0.25000, kpt=  0.2500  0.2500  0.2500 (reduced coord)
  -0.32720  -0.32720  -0.32720  -0.19969  -0.19969   0.09176   0.09176   0.09176
 kpt#   2, nband=  8, wtk=  0.75000, kpt= -0.2500  0.2500  0.2500 (reduced coord)
  -0.42373  -0.27969  -0.24491  -0.24491  -0.20697  -0.17002   0.39880   0.39880
 Total charge density [el/Bohr^3]
,     Maximum=    6.5931E-01  at reduced coord.    0.0000    0.8500    0.8500
,Next maximum=    6.5931E-01  at reduced coord.    0.8500    0.0000    0.8500
,     Minimum=    1.5247E-03  at reduced coord.    0.0000    0.0000    0.0000
,Next minimum=    2.5156E-02  at reduced coord.    0.0500    0.0000    0.0000
,  Integrated=    8.0000E+00
 Spin up density      [el/Bohr^3]
,     Maximum=    5.0678E-01  at reduced coord.    0.0000    0.8500    0.8500
,Next maximum=    5.0678E-01  at reduced coord.    0.8500    0.0000    0.8500
,     Minimum=    8.8370E-04  at reduced coord.    0.0000    0.0000    0.0000
,Next minimum=    1.6701E-02  at reduced coord.    0.5000    0.5000    0.0000
,  Integrated=    5.6532E+00
 Spin down density    [el/Bohr^3]
,     Maximum=    1.5253E-01  at reduced coord.    0.0000    0.8500    0.8500
,Next maximum=    1.5253E-01  at reduced coord.    0.8500    0.0000    0.8500
,     Minimum=    6.4098E-04  at reduced coord.    0.0000    0.0000    0.0000
,Next minimum=    5.3173E-03  at reduced coord.    0.0500    0.0000    0.0000
,  Integrated=    2.3468E+00
 Magnetization (spin up - spin down) [el/Bohr^3]
,     Maximum=    3.6819E-01  at reduced coord.    0.8000    0.9500    0.9500
,Next maximum=    3.6819E-01  at reduced coord.    0.9500    0.8000    0.9500
,     Minimum=   -1.9857E-03  at reduced coord.    0.5000    0.5000    0.0000
,Next minimum=   -1.9857E-03  at reduced coord.    0.5000    0.0000    0.5000
,  Integrated=    3.3064E+00
 Relative magnetization (=zeta, between -1 and 1)
,     Maximum=    6.0852E-01  at reduced coord.    0.8500    0.8500    0.8500
,Next maximum=    6.0852E-01  at reduced coord.    0.0000    0.0000    0.8500
,     Minimum=   -5.6114E-02  at reduced coord.    0.5000    0.5000    0.0000
,Next minimum=   -5.6114E-02  at reduced coord.    0.5000    0.0000    0.5000

================================================================================
== DATASET  3 ==================================================================
-   nproc =    1

 mkfilename : getwfk/=0, take file _WFK from output of DATASET   2.

 Exchange-correlation functional for the present dataset will be:
  LDA: new Teter (4/93) with spin-polarized option - ixc=1
 Citation for XC functional:
  S. Goedecker, M. Teter, J. Huetter, PRB 54, 1703 (1996)

 Real(R)+Recip(G) space primitive vectors, cartesian coordinates (Bohr,Bohr^-1):
 R(1)= -2.7100000  2.7100000  2.7100000  G(1)=  0.0000000  0.1845018  0.1845018
 R(2)=  2.7100000 -2.7100000  2.7100000  G(2)=  0.1845018  0.0000000  0.1845018
 R(3)=  2.7100000  2.7100000 -2.7100000  G(3)=  0.1845018  0.1845018  0.0000000
 Unit cell volume ucvol=  7.9610044E+01 bohr^3
 Angles (23,13,12)=  1.09471221E+02  1.09471221E+02  1.09471221E+02 degrees
 setup1 : take into account q-point for computing boxcut.

 getcut: wavevector=  0.0000  0.0000  0.0000  ngfft=  20  20  20
         ecut(hartree)=     21.780   => boxcut(ratio)=   2.03324
--------------------------------------------------------------------------------

-inwffil : will read wavefunctions from disk file t79o_DS2_WFK
- newkpt: read input wf with ikpt,npw=   1     360, make ikpt,npw=   1     360
- newkpt: read input wf with ikpt,npw=   2     402, make ikpt,npw=   2     402
- newkpt: read input wf with ikpt,npw=   2     402, make ikpt,npw=   3     402
- newkpt: read input wf with ikpt,npw=   2     402, make ikpt,npw=   4     402
- newkpt: read input wf with ikpt,npw=   1     360, make ikpt,npw=   1     360
- newkpt: read input wf with ikpt,npw=   2     402, make ikpt,npw=   2     402
- newkpt: read input wf with ikpt,npw=   2     402, make ikpt,npw=   3     402
- newkpt: read input wf with ikpt,npw=   2     402, make ikpt,npw=   4     402

 symkchk : k-point set has full space-group symmetry.

 ==>  initialize data related to q vector <== 

 The list of irreducible perturbations for this q vector is:
    1)    idir= 1    ipert=   4
    2)    idir= 1    ipert=   5

================================================================================

--------------------------------------------------------------------------------
 Perturbation wavevector (in red.coord.)   0.000000  0.000000  0.000000
 Found    16 symmetries that leave the perturbation invariant.
 symkpt : the number of k-points, thanks to the symmetries,
 is reduced to     3 .

--------------------------------------------------------------------------------

-inwffil : will read wavefunctions from disk file t79o_DS2_WFK
- newkpt: read input wf with ikpt,npw=   1     360, make ikpt,npw=   1     360
- newkpt: read input wf with ikpt,npw=   2     402, make ikpt,npw=   2     402
- newkpt: read input wf with ikpt,npw=   2     402, make ikpt,npw=   3     402
- newkpt: read input wf with ikpt,npw=   1     360, make ikpt,npw=   1     360
- newkpt: read input wf with ikpt,npw=   2     402, make ikpt,npw=   2     402
- newkpt: read input wf with ikpt,npw=   2     402, make ikpt,npw=   3     402

--------------------------------------------------------------------------------

-inwffil : will read wavefunctions from disk file t79o_DS2_WFK
- newkpt: read input wf with ikpt,npw=   1     360, make ikpt,npw=   1     360
- newkpt: read input wf with ikpt,npw=   2     402, make ikpt,npw=   2     402
- newkpt: read input wf with ikpt,npw=   2     402, make ikpt,npw=   3     402
- newkpt: read input wf with ikpt,npw=   1     360, make ikpt,npw=   1     360
- newkpt: read input wf with ikpt,npw=   2     402, make ikpt,npw=   2     402
- newkpt: read input wf with ikpt,npw=   2     402, make ikpt,npw=   3     402

 loper3 : total number of electrons, from k and k+q
  fully or partially occupied states are    8.000000E+00 and    8.000000E+00.
 Initialisation of the first-order wave-functions :
  ireadwf=   0
P newkpt: treating      8 bands with npw=     360 for ikpt=   1 by node    0
P newkpt: treating      8 bands with npw=     402 for ikpt=   2 by node    0
P newkpt: treating      8 bands with npw=     402 for ikpt=   3 by node    0
P newkpt: treating      8 bands with npw=     360 for ikpt=   1 by node    0
P newkpt: treating      8 bands with npw=     402 for ikpt=   2 by node    0
P newkpt: treating      8 bands with npw=     402 for ikpt=   3 by node    0


     iter   2DEtotal(Ha)        deltaE(Ha) residm    vres2
-ETOT  1   14.568984723295     -6.619E+01 1.201E-01 5.638E+03
 ETOT  2   11.417608251496     -3.151E+00 8.572E-02 1.821E+03
 ETOT  3   10.460388848413     -9.572E-01 1.948E-02 6.995E+02
 ETOT  4   10.123605564377     -3.368E-01 2.054E-03 2.629E+02
 ETOT  5   10.002185710126     -1.214E-01 8.008E-04 1.030E+02
 ETOT  6   9.9568157606583     -4.537E-02 2.619E-04 3.992E+01
 ETOT  7   9.9395657969181     -1.725E-02 6.535E-05 1.587E+01
 ETOT  8   9.9328818776101     -6.684E-03 1.335E-05 6.241E+00
 ETOT  9   9.9302711709979     -2.611E-03 3.917E-06 2.495E+00
 ETOT 10   9.9292407578215     -1.030E-03 6.622E-06 9.884E-01
 ETOT 11   9.9288333404728     -4.074E-04 1.527E-06 3.958E-01
 ETOT 12   9.9286714169013     -1.619E-04 7.777E-07 1.574E-01
 ETOT 13   9.9286069812144     -6.444E-05 2.410E-07 6.304E-02
 ETOT 14   9.9285812810991     -2.570E-05 1.089E-07 2.511E-02
 ETOT 15   9.9285710311928     -1.025E-05 3.966E-08 1.005E-02
 ETOT 16   9.9285669378605     -4.093E-06 2.311E-08 4.007E-03
 ETOT 17   9.9285653041983     -1.634E-06 6.172E-09 1.603E-03
 ETOT 18   9.9285646516395     -6.526E-07 2.934E-09 6.395E-04
 ETOT 19   9.9285643910782     -2.606E-07 1.004E-09 2.558E-04
 ETOT 20   9.9285642869754     -1.041E-07 4.326E-10 1.021E-04
 ETOT 21   9.9285642453987     -4.158E-08 1.621E-10 4.082E-05
 ETOT 22   9.9285642287878     -1.661E-08 6.695E-11 1.629E-05
 ETOT 23   9.9285642221533     -6.634E-09 2.611E-11 6.513E-06
 ETOT 24   9.9285642195026     -2.651E-09 1.055E-11 2.600E-06
 ETOT 25   9.9285642184439     -1.059E-09 4.185E-12 1.039E-06
 ETOT 26   9.9285642180208     -4.231E-10 1.676E-12 4.150E-07
 ETOT 27   9.9285642178519     -1.689E-10 6.690E-13 1.658E-07
 ETOT 28   9.9285642177844     -6.749E-11 2.671E-13 6.623E-08
 ETOT 29   9.9285642177574     -2.699E-11 1.068E-13 2.647E-08
 ETOT 30   9.9285642177466     -1.077E-11 4.260E-14 1.057E-08
 ETOT 31   9.9285642177423     -4.334E-12 1.705E-14 4.223E-09

 At SCF step   31       vres2   =  4.22E-09 < tolvrs=  1.00E-08 =>converged.
================================================================================

 ----iterations are completed or convergence reached----

 Mean square residual over all n,k,spin=  -2.5000E-02; max=  1.7049E-14
   0.2500  0.2500  0.2500    1  2.18839E-15 kpt; spin; max resid(k); each band:
  1.12E-15 1.12E-15 1.12E-15 7.37E-16 7.48E-16 2.19E-15-1.00E-01-1.00E-01
  -0.2500  0.2500  0.2500    1  1.69859E-14 kpt; spin; max resid(k); each band:
  1.69E-15 1.70E-14 5.70E-16 5.70E-16 2.33E-15 1.73E-15-1.00E-01-1.00E-01
   0.2500 -0.2500  0.2500    1  1.70485E-14 kpt; spin; max resid(k); each band:
  1.69E-15 1.70E-14 5.70E-16 5.70E-16 2.33E-15 1.73E-15-1.00E-01-1.00E-01
   0.2500  0.2500  0.2500    2  1.65336E-15 kpt; spin; max resid(k); each band:
  7.22E-16 7.22E-16 7.22E-16 1.65E-15 1.37E-15 4.46E-17-1.00E-01-1.00E-01
  -0.2500  0.2500  0.2500    2  1.43872E-14 kpt; spin; max resid(k); each band:
  3.40E-15 1.44E-14 6.27E-16 6.27E-16 2.87E-15 4.07E-15-1.00E-01-1.00E-01
   0.2500 -0.2500  0.2500    2  1.43946E-14 kpt; spin; max resid(k); each band:
  3.40E-15 1.44E-14 6.27E-16 6.27E-16 2.87E-15 3.99E-15-1.00E-01-1.00E-01

 Seventeen components of 2nd-order total energy (hartree) are
 1,2,3: 0th-order hamiltonian combined with 1st-order wavefunctions
     kin0=   6.81854093E+01 eigvalue=   3.56220611E+00  local=  -3.93934050E-01
 4,5,6,7: 1st-order hamiltonian combined with 1st and 0th-order wfs
 loc psp =   1.91328574E-01  Hartree=   5.08082764E+00     xc=  -1.57793150E+00
     kin1=  -5.34976455E+01
 8,9,10: eventually, occupation + non-local contributions
    edocc=   1.98791873E+00     enl0=  -4.87730619E+00   enl1=  -8.94959295E+01
 1-10 gives the relaxation energy (to be shifted if some occ is /=2.0)
   erelax=  -7.08350564E+01
 11,12,13 Non-relaxation  contributions : frozen-wavefunctions and Ewald
  fr.hart=  -6.57402564E-01   fr.kin=   3.28307648E+01 fr.loc=  -3.45652878E+00
 14,15,16 Non-relaxation  contributions : frozen-wavefunctions and Ewald
  fr.nonl=   4.71007858E+01    fr.xc=   3.16629355E-01  Ewald=  -1.60431044E+00
 17 Non-relaxation  contributions : pseudopotential core energy
  pspcore=   6.23368243E+00
 Resulting in :
 2DEtotal=    0.9928564218E+01 Ha. Also 2DEtotal=    0.270169972108E+03 eV
    (2DErelax=   -7.0835056365E+01 Ha. 2DEnonrelax=    8.0763620583E+01 Ha)
    (  non-var. 2DEtotal :    9.9285616275E+00 Ha)


--------------------------------------------------------------------------------
 Perturbation wavevector (in red.coord.)   0.000000  0.000000  0.000000
 Found     8 symmetries that leave the perturbation invariant.
 symkpt : the number of k-points, thanks to the symmetries,
 is reduced to     3 .

--------------------------------------------------------------------------------

-inwffil : will read wavefunctions from disk file t79o_DS2_WFK
- newkpt: read input wf with ikpt,npw=   1     360, make ikpt,npw=   1     360
- newkpt: read input wf with ikpt,npw=   2     402, make ikpt,npw=   2     402
- newkpt: read input wf with ikpt,npw=   2     402, make ikpt,npw=   3     402
- newkpt: read input wf with ikpt,npw=   1     360, make ikpt,npw=   1     360
- newkpt: read input wf with ikpt,npw=   2     402, make ikpt,npw=   2     402
- newkpt: read input wf with ikpt,npw=   2     402, make ikpt,npw=   3     402

--------------------------------------------------------------------------------

-inwffil : will read wavefunctions from disk file t79o_DS2_WFK
- newkpt: read input wf with ikpt,npw=   1     360, make ikpt,npw=   1     360
- newkpt: read input wf with ikpt,npw=   2     402, make ikpt,npw=   2     402
- newkpt: read input wf with ikpt,npw=   2     402, make ikpt,npw=   3     402
- newkpt: read input wf with ikpt,npw=   1     360, make ikpt,npw=   1     360
- newkpt: read input wf with ikpt,npw=   2     402, make ikpt,npw=   2     402
- newkpt: read input wf with ikpt,npw=   2     402, make ikpt,npw=   3     402

 loper3 : total number of electrons, from k and k+q
  fully or partially occupied states are    8.000000E+00 and    8.000000E+00.
 Initialisation of the first-order wave-functions :
  ireadwf=   0
P newkpt: treating      8 bands with npw=     360 for ikpt=   1 by node    0
P newkpt: treating      8 bands with npw=     402 for ikpt=   2 by node    0
P newkpt: treating      8 bands with npw=     402 for ikpt=   3 by node    0
P newkpt: treating      8 bands with npw=     360 for ikpt=   1 by node    0
P newkpt: treating      8 bands with npw=     402 for ikpt=   2 by node    0
P newkpt: treating      8 bands with npw=     402 for ikpt=   3 by node    0


     iter   2DEtotal(Ha)        deltaE(Ha) residm    vres2
-ETOT  1   6.7742275349379     -4.072E+01 1.210E+00 2.899E+03
 ETOT  2   4.6678655376415     -2.106E+00 2.810E-02 5.009E+02
 ETOT  3   4.2750511385625     -3.928E-01 3.387E-03 1.127E+02
 ETOT  4   4.1744553743901     -1.006E-01 5.864E-04 3.090E+01
 ETOT  5   4.1503068656651     -2.415E-02 1.869E-04 6.890E+00
 ETOT  6   4.1443342311269     -5.973E-03 3.757E-05 1.811E+00
 ETOT  7   4.1428828232154     -1.451E-03 1.071E-05 4.210E-01
 ETOT  8   4.1425252565410     -3.576E-04 2.326E-06 1.072E-01
 ETOT  9   4.1424380529775     -8.720E-05 6.291E-07 2.551E-02
 ETOT 10   4.1424166228253     -2.143E-05 1.418E-07 6.388E-03
 ETOT 11   4.1424113856467     -5.237E-06 3.734E-08 1.539E-03
 ETOT 12   4.1424101004745     -1.285E-06 8.586E-09 3.818E-04
 ETOT 13   4.1424097860294     -3.144E-07 2.227E-09 9.267E-05
 ETOT 14   4.1424097089315     -7.710E-08 6.154E-10 2.286E-05
 ETOT 15   4.1424096900544     -1.888E-08 2.558E-10 5.572E-06
 ETOT 16   4.1424096854281     -4.626E-09 4.044E-11 1.370E-06
 ETOT 17   4.1424096842949     -1.133E-09 7.982E-12 3.347E-07
 ETOT 18   4.1424096840172     -2.777E-10 1.873E-12 8.219E-08
 ETOT 19   4.1424096839492     -6.801E-11 4.786E-13 2.010E-08
 ETOT 20   4.1424096839326     -1.658E-11 1.125E-13 4.931E-09

 At SCF step   20       vres2   =  4.93E-09 < tolvrs=  1.00E-08 =>converged.
================================================================================

 ----iterations are completed or convergence reached----

 Mean square residual over all n,k,spin=  -2.5000E-02; max=  1.1249E-13
   0.2500  0.2500  0.2500    1  7.30664E-14 kpt; spin; max resid(k); each band:
  4.25E-14 6.02E-14 4.25E-14 5.16E-15 5.18E-15 7.31E-14-1.00E-01-1.00E-01
  -0.2500  0.2500  0.2500    1  1.12489E-13 kpt; spin; max resid(k); each band:
  1.96E-15 7.19E-15 7.83E-15 7.81E-15 1.12E-13 5.04E-15-1.00E-01-1.00E-01
   0.2500 -0.2500  0.2500    1  4.67728E-14 kpt; spin; max resid(k); each band:
  9.89E-16 2.25E-16 4.68E-14 4.68E-14 7.88E-15 4.08E-15-1.00E-01-1.00E-01
   0.2500  0.2500  0.2500    2  6.95014E-14 kpt; spin; max resid(k); each band:
  1.14E-14 1.48E-14 1.14E-14 2.70E-15 2.92E-15 6.95E-14-1.00E-01-1.00E-01
  -0.2500  0.2500  0.2500    2  6.22105E-14 kpt; spin; max resid(k); each band:
  5.62E-16 2.73E-15 4.18E-15 4.16E-15 6.22E-14 6.60E-15-1.00E-01-1.00E-01
   0.2500 -0.2500  0.2500    2  2.62321E-14 kpt; spin; max resid(k); each band:
  2.06E-16 3.11E-15 2.62E-14 2.62E-14 7.73E-16 1.76E-15-1.00E-01-1.00E-01

 Seventeen components of 2nd-order total energy (hartree) are
 1,2,3: 0th-order hamiltonian combined with 1st-order wavefunctions
     kin0=   3.98315095E+01 eigvalue=   2.17443508E+00  local=  -5.65040492E-01
 4,5,6,7: 1st-order hamiltonian combined with 1st and 0th-order wfs
 loc psp =  -8.19413873E-01  Hartree=   6.19399454E+00     xc=  -8.89563418E-01
     kin1=  -2.52096136E+01
 8,9,10: eventually, occupation + non-local contributions
    edocc=   6.42686659E-01     enl0=  -5.96448908E-01   enl1=  -6.41107924E+01
 1-10 gives the relaxation energy (to be shifted if some occ is /=2.0)
   erelax=  -4.33482468E+01
 11,12,13 Non-relaxation  contributions : frozen-wavefunctions and Ewald
  fr.hart=  -8.64779409E-02   fr.kin=   1.64153824E+01 fr.loc=  -5.10761388E+00
 14,15,16 Non-relaxation  contributions : frozen-wavefunctions and Ewald
  fr.nonl=   3.14177637E+01    fr.xc=   4.68405456E-01  Ewald=   4.38319674E+00
 17 Non-relaxation  contributions : pseudopotential core energy
  pspcore=   0.00000000E+00
 Resulting in :
 2DEtotal=    0.4142409684E+01 Ha. Also 2DEtotal=    0.112720700015E+03 eV
    (2DErelax=   -4.3348246803E+01 Ha. 2DEnonrelax=    4.7490656486E+01 Ha)
    (  non-var. 2DEtotal :    4.1424144520E+00 Ha)

================================================================================

 ---- first-order wavefunction calculations are completed ----


 ==> Compute Derivative Database <==
  
  2nd-order matrix (non-cartesian coordinates, masses not included,
   asr not included )
  cartesian coordinates for strain terms (1/ucvol factor 
   for elastic tensor components not included) 
     j1       j2             matrix element
  dir pert dir pert     real part     imaginary part
  
   1    1   2    3         0.0000000000         0.0000000000
   1    1   3    3         0.0000000000         0.0000000000
   1    1   1    4         0.0000000010         0.0000000000
   1    1   1    5         0.0000000001         0.0000000000
  
   2    1   1    3         0.0000000000         0.0000000000
   2    1   3    3         0.0000000000         0.0000000000
   2    1   1    4        -0.0000000009         0.0000000000
   2    1   1    5         0.0000000005         0.0000000000
  
   3    1   1    3         0.0000000000         0.0000000000
   3    1   2    3         0.0000000000         0.0000000000
   3    1   1    4        -0.0000000014         0.0000000000
   3    1   1    5        -0.0000000007         0.0000000000
  
   1    3   2    1         0.0000000000         0.0000000000
   1    3   3    1         0.0000000000         0.0000000000
  
   2    3   1    1         0.0000000000         0.0000000000
   2    3   3    1         0.0000000000         0.0000000000
  
   3    3   1    1         0.0000000000         0.0000000000
   3    3   2    1         0.0000000000         0.0000000000
  
   1    4   1    4         9.9285616275         0.0000000000
   1    4   1    5         0.0000000024         0.0000000000
  
   2    4   1    4         3.0755460160         0.0000000000
   2    4   1    5         0.0000000015         0.0000000000
  
   3    4   1    4         3.0755460160         0.0000000000
   3    4   1    5         0.0000000015         0.0000000000
  
   1    5   1    4         0.0000000011         0.0000000000
   1    5   1    5         4.1424144520         0.0000000000
  
   2    5   1    4        -0.0000000028         0.0000000000
   2    5   1    5         0.0000000040         0.0000000000
  
   3    5   1    4         0.0000000056         0.0000000000
   3    5   1    5        -0.0000000021         0.0000000000
  
  
  Rigid-atom elastic tensor , in cartesian coordinates,
     j1       j2             matrix element
  dir pert dir pert     real part    imaginary part
  
   1    4   1    4         0.1247149371         0.0000000000
   1    4   1    5         0.0000000000         0.0000000000
  
   2    4   1    4         0.0386326381         0.0000000000
   2    4   1    5         0.0000000000         0.0000000000
  
   3    4   1    4         0.0386326381         0.0000000000
   3    4   1    5         0.0000000000         0.0000000000
  
   1    5   1    4         0.0000000000         0.0000000000
   1    5   1    5         0.0520338169         0.0000000000
  
   2    5   1    4        -0.0000000000         0.0000000000
   2    5   1    5         0.0000000001         0.0000000000
  
   3    5   1    4         0.0000000001         0.0000000000
   3    5   1    5        -0.0000000000         0.0000000000
  
  Internal strain coupling parameters, in cartesian coordinates,
   zero average net force deriv. has been imposed  
     j1       j2             matrix element
  dir pert dir pert     real part    imaginary part
  
   1    1   1    4        -0.0000000000         0.0000000000
   1    1   1    5        -0.0000000000         0.0000000000
  
   2    1   1    4        -0.0000000000         0.0000000000
   2    1   1    5        -0.0000000000         0.0000000000
  
   3    1   1    4        -0.0000000000         0.0000000000
   3    1   1    5        -0.0000000000         0.0000000000

== END DATASET(S) ==============================================================
================================================================================
  
 -outvars: echo values of variables after computation  --------
            acell      5.4200000000E+00  5.4200000000E+00  5.4200000000E+00 Bohr
              amu      5.58470000E+01
          dilatmx      1.10000000E+00
             ecut      1.80000000E+01 Hartree
           etotal1    -2.4691477016E+01
           etotal3     4.1424096839E+00
            fcart1    -0.0000000000E+00 -0.0000000000E+00 -0.0000000000E+00
            fcart3     0.0000000000E+00  0.0000000000E+00  0.0000000000E+00
-          fftalg         112
           getden1          0
           getden2         -1
           getden3          0
           getwfk1          0
           getwfk2         -1
           getwfk3         -1
             iscf1          5
             iscf2         -2
             iscf3          2
           jdtset        1    2    3
              kpt1     2.50000000E-01  2.50000000E-01  2.50000000E-01
                      -2.50000000E-01  2.50000000E-01  2.50000000E-01
              kpt2     2.50000000E-01  2.50000000E-01  2.50000000E-01
                      -2.50000000E-01  2.50000000E-01  2.50000000E-01
              kpt3     2.50000000E-01  2.50000000E-01  2.50000000E-01
                      -2.50000000E-01  2.50000000E-01  2.50000000E-01
                       2.50000000E-01 -2.50000000E-01  2.50000000E-01
                      -2.50000000E-01 -2.50000000E-01  2.50000000E-01
           kptopt1          1
           kptopt2          1
           kptopt3          2
         kptrlatt        2    0    0      0    2    0      0    0    2
          kptrlen      9.38771538E+00
P           mkmem1          2
P           mkmem2          2
P           mkmem3          4
P          mkqmem1          2
P          mkqmem2          2
P          mkqmem3          4
P          mk1mem1          2
P          mk1mem2          2
P          mk1mem3          4
            natom           1
            nband1          8
            nband2          8
            nband3          8
           nbdbuf1          0
           nbdbuf2          2
           nbdbuf3          2
           ndtset           3
            ngfft          20      20      20
             nkpt1          2
             nkpt2          2
             nkpt3          4
             nqpt1          0
             nqpt2          0
             nqpt3          1
           nspden           2
           nsppol           2
            nstep          50
             nsym          48
           ntypat           1
              occ1     1.000000  1.000000  1.000000  0.997986  0.997986  0.000000
                       0.000000  0.000000
                       1.000000  0.999994  0.999950  0.999950  0.999088  0.873318
                       0.000000  0.000000
                       0.998386  0.998386  0.998386  0.001789  0.001789  0.000000
                       0.000000  0.000000
                       1.000000  0.842376  0.141648  0.141648  0.003700  0.000092
                       0.000000  0.000000
              occ3     1.000000  1.000000  1.000000  0.997986  0.997986  0.000000
                       0.000000  0.000000
                       1.000000  0.999994  0.999950  0.999950  0.999088  0.873318
                       0.000000  0.000000
                       1.000000  0.999994  0.999950  0.999950  0.999088  0.873318
                       0.000000  0.000000
                       1.000000  0.999994  0.999950  0.999950  0.999088  0.873318
                       0.000000  0.000000
                       0.998386  0.998386  0.998386  0.001789  0.001789  0.000000
                       0.000000  0.000000
                       1.000000  0.842376  0.141648  0.141648  0.003700  0.000092
                       0.000000  0.000000
                       1.000000  0.842376  0.141648  0.141648  0.003700  0.000092
                       0.000000  0.000000
                       1.000000  0.842376  0.141648  0.141648  0.003700  0.000092
                       0.000000  0.000000
           occopt           3
        optdriver1          0
        optdriver2          0
        optdriver3          1
            rfdir1          0       0       0
            rfdir2          0       0       0
            rfdir3          1       0       0
           rfstrs1          0
           rfstrs2          0
           rfstrs3          3
            rprim     -5.0000000000E-01  5.0000000000E-01  5.0000000000E-01
                       5.0000000000E-01 -5.0000000000E-01  5.0000000000E-01
                       5.0000000000E-01  5.0000000000E-01 -5.0000000000E-01
           shiftk      5.00000000E-01  5.00000000E-01  5.00000000E-01
          spgroup         229
           spinat1     0.0000000000E+00  0.0000000000E+00  4.0000000000E+00
           spinat2     0.0000000000E+00  0.0000000000E+00  0.0000000000E+00
           spinat3     0.0000000000E+00  0.0000000000E+00  0.0000000000E+00
           strten1     1.6138917180E-02  1.6138917180E-02  1.6138917180E-02
                       0.0000000000E+00  0.0000000000E+00  0.0000000000E+00
           strten3     0.0000000000E+00  0.0000000000E+00  0.0000000000E+00
                       0.0000000000E+00  0.0000000000E+00  0.0000000000E+00
           symrel      1  0  0   0  1  0   0  0  1      -1  0  0   0 -1  0   0  0 -1
                      -1 -1 -1   0  0  1   0  1  0       1  1  1   0  0 -1   0 -1  0
                       0  1  0   1  0  0  -1 -1 -1       0 -1  0  -1  0  0   1  1  1
                       0  0  1  -1 -1 -1   1  0  0       0  0 -1   1  1  1  -1  0  0
                       0  1  0   1  0  0   0  0  1       0 -1  0  -1  0  0   0  0 -1
                      -1 -1 -1   0  0  1   1  0  0       1  1  1   0  0 -1  -1  0  0
                       1  0  0   0  1  0  -1 -1 -1      -1  0  0   0 -1  0   1  1  1
                       0  0  1  -1 -1 -1   0  1  0       0  0 -1   1  1  1   0 -1  0
                      -1 -1 -1   1  0  0   0  0  1       1  1  1  -1  0  0   0  0 -1
                       0  1  0   0  0  1   1  0  0       0 -1  0   0  0 -1  -1  0  0
                       1  0  0  -1 -1 -1   0  1  0      -1  0  0   1  1  1   0 -1  0
                       0  0  1   0  1  0  -1 -1 -1       0  0 -1   0 -1  0   1  1  1
                       1  0  0  -1 -1 -1   0  0  1      -1  0  0   1  1  1   0  0 -1
                       0  1  0   0  0  1  -1 -1 -1       0 -1  0   0  0 -1   1  1  1
                      -1 -1 -1   1  0  0   0  1  0       1  1  1  -1  0  0   0 -1  0
                       0  0  1   0  1  0   1  0  0       0  0 -1   0 -1  0  -1  0  0
                       0  1  0  -1 -1 -1   0  0  1       0 -1  0   1  1  1   0  0 -1
                       1  0  0   0  0  1  -1 -1 -1      -1  0  0   0  0 -1   1  1  1
                      -1 -1 -1   0  1  0   1  0  0       1  1  1   0 -1  0  -1  0  0
                       0  0  1   1  0  0   0  1  0       0  0 -1  -1  0  0   0 -1  0
                      -1 -1 -1   0  1  0   0  0  1       1  1  1   0 -1  0   0  0 -1
                       1  0  0   0  0  1   0  1  0      -1  0  0   0  0 -1   0 -1  0
                       0  1  0  -1 -1 -1   1  0  0       0 -1  0   1  1  1  -1  0  0
                       0  0  1   1  0  0  -1 -1 -1       0  0 -1  -1  0  0   1  1  1
           tolvrs1     1.00000000E-10
           tolvrs2     0.00000000E+00
           tolvrs3     1.00000000E-08
           tolwfr1     0.00000000E+00
           tolwfr2     1.00000000E-08
           tolwfr3     0.00000000E+00
           tsmear      1.00000000E-02 Hartree
            typat      1
              wtk1       0.25000    0.75000
              wtk2       0.25000    0.75000
              wtk3       0.25000    0.25000    0.25000    0.25000
            znucl       26.00000

================================================================================


- Timing analysis has been suppressed with timopt=0



================================================================================

 Suggested references for the acknowledgment of ABINIT usage.

 The users of ABINIT have little formal obligations with respect to the ABINIT group
 (those specified in the GNU General Public License, http://www.gnu.org/copyleft/gpl.txt).
 However, it is common practice in the scientific literature,
 to acknowledge the efforts of people that have made the research possible.
 In this spirit, please find below suggested citations of work written by ABINIT developers,
 corresponding to implementations inside of ABINIT that you have used in the present run.
 Note also that it will be of great value to readers of publications presenting these results,
 to read papers enabling them to understand the theoretical formalism and details
 of the ABINIT implementation.
 For information on why they are suggested, see also http://www.abinit.org/about/?text=acknowledgments.

 [1] Metric tensor formulation of strain in density-functional perturbation theory, 
 D. R. Hamann, X. Wu, K. M. Rabe, and D. Vanderbilt, Phys. Rev. B71, 035117 (2005).
 Comment : Non-vanishing rfstrs. Strong suggestion to cite this paper in your publications.

 [2] ABINIT : First-principles approach of materials and nanosystem properties.
 X. Gonze, B. Amadon, P.-M. Anglade, J.-M. Beuken, F. Bottin, P. Boulanger, F. Bruneval,
 D. Caliste, R. Caracas, M. Cote, T. Deutsch, L. Genovese, Ph. Ghosez, M. Giantomassi
 S. Goedecker, D.R. Hamann, P. Hermet, F. Jollet, G. Jomard, S. Leroux, M. Mancini, S. Mazevet,
 M.J.T. Oliveira, G. Onida, Y. Pouillon, T. Rangel, G.-M. Rignanese, D. Sangalli, R. Shaltaf,
 M. Torrent, M.J. Verstraete, G. Zerah, J.W. Zwanziger
 Computer Phys. Comm. 180, 2582-2615 (2009).
 Comment : the third generic paper describing the ABINIT project.
 Note that a version of this paper, that is not formatted for Computer Phys. Comm. 
 is available at http://www.abinit.org/about/ABINIT_CPC_v10.pdf .
 The licence allows the authors to put it on the Web.

 [3] A brief introduction to the ABINIT software package.
 X. Gonze, G.-M. Rignanese, M. Verstraete, J.-M. Beuken, Y. Pouillon, R. Caracas, F. Jollet,
 M. Torrent, G. Zerah, M. Mikami, Ph. Ghosez, M. Veithen, J.-Y. Raty, V. Olevano, F. Bruneval,
 L. Reining, R. Godby, G. Onida, D.R. Hamann, and D.C. Allan.
 Z. Kristallogr. 220, 558-562 (2005).
 Comment : the second generic paper describing the ABINIT project. Note that this paper
 should be cited especially if you are using the GW part of ABINIT, as several authors
 of this part are not in the list of authors of the first or third paper.
 The .pdf of the latter paper is available at http://www.abinit.org/about/zfk_0505-06_558-562.pdf.
 Note that it should not redistributed (Copyright by Oldenburg Wissenshaftverlag,
 the licence allows the authors to put it on the Web).


 And optionally :

 [4] First-principles computation of material properties : the ABINIT software project. 
 X. Gonze, J.-M. Beuken, R. Caracas, F. Detraux, M. Fuchs, G.-M. Rignanese, L. Sindic,
 M. Verstraete, G. Zerah, F. Jollet, M. Torrent, A. Roy, M. Mikami, Ph. Ghosez, J.-Y. Raty, D.C. Allan.
 Computational Materials Science 25, 478-492 (2002). http://dx.doi.org/10.1016/S0927-0256(02)00325-7
 Comment : the original paper describing the ABINIT project.

 [5] Fast radix 2, 3, 4 and 5 kernels for Fast Fourier Transformations
 on computers with overlapping multiply-add instructions.
 S. Goedecker, SIAM J. on Scientific Computing 18, 1605 (1997).
-
- Proc.   0 individual time (sec): cpu=          6.2  wall=          6.2

================================================================================

 Calculation completed.
.Delivered   20 WARNINGs and   5 COMMENTs to log file.
+Overall time at end (sec) : cpu=          6.2  wall=          6.2
