
.Version 7.10.4 of ABINIT 
.(MPI version, prepared for a x86_64_linux_gnu4.7 computer) 

.Copyright (C) 1998-2014 ABINIT group . 
 ABINIT comes with ABSOLUTELY NO WARRANTY.
 It is free software, and you are welcome to redistribute it
 under certain conditions (GNU General Public License,
 see ~abinit/COPYING or http://www.gnu.org/copyleft/gpl.txt).

 ABINIT is a project of the Universite Catholique de Louvain,
 Corning Inc. and other collaborators, see ~abinit/doc/developers/contributors.txt .
 Please read ~abinit/doc/users/acknowledgments.html for suggested
 acknowledgments of the ABINIT effort.
 For more information, see http://www.abinit.org .

.Starting date : Wed 11 Mar 2015.
- ( at 10h26 )
  
- input  file    -> t84.in
- output file    -> t84.out
- root for input  files -> t84i
- root for output files -> t84o


 DATASET    1 : space group Fd -3 m (#227); Bravais cF (face-center cubic)
================================================================================
 Values of the parameters that define the memory need for DATASET  1.
   intxc =         0  ionmov =         0    iscf =         5 xclevel =         1
  lmnmax =         2   lnmax =         2   mband =        35  mffmem =         1
P  mgfft =        18   mkmem =         8 mpssoang=         3     mpw =       200
  mqgrid =      3001   natom =         2    nfft =      5832    nkpt =         8
  nloalg =         4  nspden =         1 nspinor =         1  nsppol =         1
    nsym =        48  n1xccc =      2501  ntypat =         1  occopt =         1
================================================================================
P This job should need less than                       2.906 Mbytes of memory.
  Rough estimation (10% accuracy) of disk space for files :
_ WF disk file :      0.856 Mbytes ; DEN or POT disk file :      0.046 Mbytes.
================================================================================


 DATASET    2 : space group Fd -3 m (#227); Bravais cF (face-center cubic)
================================================================================
 Values of the parameters that define the memory need for DATASET  2.
   intxc =         0  ionmov =         0    iscf =         7 xclevel =         1
  lmnmax =         2   lnmax =         2   mband =        16  mffmem =         1
P  mgfft =        16   mkmem =         8 mpssoang=         3     mpw =       200
  mqgrid =      3001   natom =         2    nfft =      4096    nkpt =         8
  nloalg =         4  nspden =         1 nspinor =         1  nsppol =         1
    nsym =        48  n1xccc =      2501  ntypat =         1  occopt =         1
================================================================================
P This job should need less than                       2.179 Mbytes of memory.
  Rough estimation (10% accuracy) of disk space for files :
_ WF disk file :      0.393 Mbytes ; DEN or POT disk file :      0.033 Mbytes.
================================================================================


 DATASET    3 : space group Fd -3 m (#227); Bravais cF (face-center cubic)
================================================================================
 Values of the parameters that define the memory need for DATASET  3.
   intxc =         0  ionmov =         0    iscf =         7 xclevel =         1
  lmnmax =         2   lnmax =         2   mband =        30  mffmem =         1
P  mgfft =        16   mkmem =         8 mpssoang=         3     mpw =       200
  mqgrid =      3001   natom =         2    nfft =      4096    nkpt =         8
  nloalg =         4  nspden =         1 nspinor =         1  nsppol =         1
    nsym =        48  n1xccc =      2501  ntypat =         1  occopt =         1
================================================================================
P This job should need less than                       2.555 Mbytes of memory.
  Rough estimation (10% accuracy) of disk space for files :
_ WF disk file :      0.734 Mbytes ; DEN or POT disk file :      0.033 Mbytes.
================================================================================


 DATASET    4 : space group Fd -3 m (#227); Bravais cF (face-center cubic)
================================================================================
 Values of the parameters that define the memory need for DATASET  4.
   intxc =         0  ionmov =         0    iscf =         7 xclevel =         1
  lmnmax =         2   lnmax =         2   mband =        30  mffmem =         1
P  mgfft =        16   mkmem =         8 mpssoang=         3     mpw =       200
  mqgrid =      3001   natom =         2    nfft =      4096    nkpt =         8
  nloalg =         4  nspden =         1 nspinor =         1  nsppol =         1
    nsym =        48  n1xccc =      2501  ntypat =         1  occopt =         1
================================================================================
P This job should need less than                       2.555 Mbytes of memory.
  Rough estimation (10% accuracy) of disk space for files :
_ WF disk file :      0.734 Mbytes ; DEN or POT disk file :      0.033 Mbytes.
================================================================================

--------------------------------------------------------------------------------
------------- Echo of variables that govern the present computation ------------
--------------------------------------------------------------------------------
-
- outvars: echo of selected default values                                      
-   accesswff0 =  0 , fftalg0 =112 , wfoptalg0 =  0
-
- outvars: echo of global parameters not present in the input file              
-  max_nthreads =    0
-
 -outvars: echo values of preprocessed input variables --------
            acell      1.0263000000E+01  1.0263000000E+01  1.0263000000E+01 Bohr
              amu      2.80855000E+01
             awtr1          1
             awtr2          0
             awtr3          1
             awtr4          1
             bdgw3          4       5       4       5
             bdgw4          4       5       4       5
             ecut1     6.00000000E+00 Hartree
             ecut2     5.99695875E+00 Hartree
             ecut3     5.99695875E+00 Hartree
             ecut4     5.99695875E+00 Hartree
          ecuteps1     0.00000000E+00 Hartree
          ecuteps2     2.06145457E+00 Hartree
          ecuteps3     0.00000000E+00 Hartree
          ecuteps4     0.00000000E+00 Hartree
         ecutsigx1     0.00000000E+00 Hartree
         ecutsigx2     0.00000000E+00 Hartree
         ecutsigx3     3.56069426E+00 Hartree
         ecutsigx4     3.56069426E+00 Hartree
          ecutwfn1     6.00000000E+00 Hartree
          ecutwfn2     5.99695875E+00 Hartree
          ecutwfn3     5.99695875E+00 Hartree
          ecutwfn4     5.99695875E+00 Hartree
           enunit           2
-          fftalg         112
        freqremax1     0.00000000E+00 Hartree
        freqremax2     1.00000000E+00 Hartree
        freqremax3     0.00000000E+00 Hartree
        freqremax4     0.00000000E+00 Hartree
           getkss1          0
           getkss2          1
           getkss3          1
           getkss4          1
           getscr1          0
           getscr2          0
           getscr3          2
           getscr4          2
        gwcalctyp1          0
        gwcalctyp2          2
        gwcalctyp3          0
        gwcalctyp4          2
         icutcoul1          6
         icutcoul2          6
         icutcoul3          3
         icutcoul4          3
             iscf1          5
             iscf2          7
             iscf3          7
             iscf4          7
           istwfk        1    0    1    0    0    0    1    0
           jdtset        1    2    3    4
              kpt      0.00000000E+00  0.00000000E+00  0.00000000E+00
                       2.50000000E-01  0.00000000E+00  0.00000000E+00
                       5.00000000E-01  0.00000000E+00  0.00000000E+00
                       2.50000000E-01  2.50000000E-01  0.00000000E+00
                       5.00000000E-01  2.50000000E-01  0.00000000E+00
                      -2.50000000E-01  2.50000000E-01  0.00000000E+00
                       5.00000000E-01  5.00000000E-01  0.00000000E+00
                      -2.50000000E-01  5.00000000E-01  2.50000000E-01
            kptgw3     0.00000000E+00  0.00000000E+00  0.00000000E+00
                       5.00000000E-01  5.00000000E-01  0.00000000E+00
            kptgw4     0.00000000E+00  0.00000000E+00  0.00000000E+00
                       5.00000000E-01  5.00000000E-01  0.00000000E+00
         kptrlatt        4    0    0      0    4    0      0    0    4
          kptrlen      2.90281476E+01
          kssform1          3
          kssform2          1
          kssform3          1
          kssform4          1
P           mkmem           8
            natom           2
            nband1         35
            nband2         16
            nband3         30
            nband4         30
         nbandkss1         30
         nbandkss2          0
         nbandkss3          0
         nbandkss4          0
           nbdbuf1          5
           nbdbuf2          0
           nbdbuf3          0
           nbdbuf4          0
           ndtset           4
          nfreqim1         -1
          nfreqim2          4
          nfreqim3         -1
          nfreqim4         -1
          nfreqre1         -1
          nfreqre2          5
          nfreqre3         -1
          nfreqre4         -1
            ngfft1         18      18      18
            ngfft2         16      16      16
            ngfft3         16      16      16
            ngfft4         16      16      16
             nkpt           8
           nkptgw1          0
           nkptgw2          0
           nkptgw3          2
           nkptgw4          2
           npweps1          0
           npweps2         51
           npweps3          0
           npweps4          0
          npwsigx1          0
          npwsigx2          0
          npwsigx3         89
          npwsigx4         89
           npwwfn1          0
           npwwfn2        181
           npwwfn3        181
           npwwfn4        181
           nsheps1          0
           nsheps2          5
           nsheps3          0
           nsheps4          0
          nshsigx1          0
          nshsigx2          0
          nshsigx3          8
          nshsigx4          8
            nstep         100
             nsym          48
           ntypat           1
              occ1     2.000000  2.000000  2.000000  2.000000  0.000000  0.000000
                       0.000000  0.000000  0.000000  0.000000  0.000000  0.000000
                       0.000000  0.000000  0.000000  0.000000  0.000000  0.000000
                       0.000000  0.000000  0.000000  0.000000  0.000000  0.000000
                       0.000000  0.000000  0.000000  0.000000  0.000000  0.000000
                       0.000000  0.000000  0.000000  0.000000  0.000000
              occ2     2.000000  2.000000  2.000000  2.000000  0.000000  0.000000
                       0.000000  0.000000  0.000000  0.000000  0.000000  0.000000
                       0.000000  0.000000  0.000000  0.000000
              occ3     2.000000  2.000000  2.000000  2.000000  0.000000  0.000000
                       0.000000  0.000000  0.000000  0.000000  0.000000  0.000000
                       0.000000  0.000000  0.000000  0.000000  0.000000  0.000000
                       0.000000  0.000000  0.000000  0.000000  0.000000  0.000000
                       0.000000  0.000000  0.000000  0.000000  0.000000  0.000000
              occ4     2.000000  2.000000  2.000000  2.000000  0.000000  0.000000
                       0.000000  0.000000  0.000000  0.000000  0.000000  0.000000
                       0.000000  0.000000  0.000000  0.000000  0.000000  0.000000
                       0.000000  0.000000  0.000000  0.000000  0.000000  0.000000
                       0.000000  0.000000  0.000000  0.000000  0.000000  0.000000
        optdriver1          0
        optdriver2          3
        optdriver3          4
        optdriver4          4
            rprim      0.0000000000E+00  5.0000000000E-01  5.0000000000E-01
                       5.0000000000E-01  0.0000000000E+00  5.0000000000E-01
                       5.0000000000E-01  5.0000000000E-01  0.0000000000E+00
          spgroup         227
           symrel      1  0  0   0  1  0   0  0  1      -1  0  0   0 -1  0   0  0 -1
                       0 -1  1   0 -1  0   1 -1  0       0  1 -1   0  1  0  -1  1  0
                      -1  0  0  -1  0  1  -1  1  0       1  0  0   1  0 -1   1 -1  0
                       0  1 -1   1  0 -1   0  0 -1       0 -1  1  -1  0  1   0  0  1
                      -1  0  0  -1  1  0  -1  0  1       1  0  0   1 -1  0   1  0 -1
                       0 -1  1   1 -1  0   0 -1  0       0  1 -1  -1  1  0   0  1  0
                       1  0  0   0  0  1   0  1  0      -1  0  0   0  0 -1   0 -1  0
                       0  1 -1   0  0 -1   1  0 -1       0 -1  1   0  0  1  -1  0  1
                      -1  0  1  -1  1  0  -1  0  0       1  0 -1   1 -1  0   1  0  0
                       0 -1  0   1 -1  0   0 -1  1       0  1  0  -1  1  0   0  1 -1
                       1  0 -1   0  0 -1   0  1 -1      -1  0  1   0  0  1   0 -1  1
                       0  1  0   0  0  1   1  0  0       0 -1  0   0  0 -1  -1  0  0
                       1  0 -1   0  1 -1   0  0 -1      -1  0  1   0 -1  1   0  0  1
                       0 -1  0   0 -1  1   1 -1  0       0  1  0   0  1 -1  -1  1  0
                      -1  0  1  -1  0  0  -1  1  0       1  0 -1   1  0  0   1 -1  0
                       0  1  0   1  0  0   0  0  1       0 -1  0  -1  0  0   0  0 -1
                       0  0 -1   0  1 -1   1  0 -1       0  0  1   0 -1  1  -1  0  1
                       1 -1  0   0 -1  1   0 -1  0      -1  1  0   0  1 -1   0  1  0
                       0  0  1   1  0  0   0  1  0       0  0 -1  -1  0  0   0 -1  0
                      -1  1  0  -1  0  0  -1  0  1       1 -1  0   1  0  0   1  0 -1
                       0  0  1   0  1  0   1  0  0       0  0 -1   0 -1  0  -1  0  0
                       1 -1  0   0 -1  0   0 -1  1      -1  1  0   0  1  0   0  1 -1
                       0  0 -1   1  0 -1   0  1 -1       0  0  1  -1  0  1   0 -1  1
                      -1  1  0  -1  0  1  -1  0  0       1 -1  0   1  0 -1   1  0  0
            tnons      0.0000000  0.0000000  0.0000000     0.2500000  0.2500000  0.2500000
                       0.0000000  0.0000000  0.0000000     0.2500000  0.2500000  0.2500000
                       0.0000000  0.0000000  0.0000000     0.2500000  0.2500000  0.2500000
                       0.0000000  0.0000000  0.0000000     0.2500000  0.2500000  0.2500000
                       0.0000000  0.0000000  0.0000000     0.2500000  0.2500000  0.2500000
                       0.0000000  0.0000000  0.0000000     0.2500000  0.2500000  0.2500000
                       0.0000000  0.0000000  0.0000000     0.2500000  0.2500000  0.2500000
                       0.0000000  0.0000000  0.0000000     0.2500000  0.2500000  0.2500000
                       0.0000000  0.0000000  0.0000000     0.2500000  0.2500000  0.2500000
                       0.0000000  0.0000000  0.0000000     0.2500000  0.2500000  0.2500000
                       0.0000000  0.0000000  0.0000000     0.2500000  0.2500000  0.2500000
                       0.0000000  0.0000000  0.0000000     0.2500000  0.2500000  0.2500000
                       0.0000000  0.0000000  0.0000000     0.2500000  0.2500000  0.2500000
                       0.0000000  0.0000000  0.0000000     0.2500000  0.2500000  0.2500000
                       0.0000000  0.0000000  0.0000000     0.2500000  0.2500000  0.2500000
                       0.0000000  0.0000000  0.0000000     0.2500000  0.2500000  0.2500000
                       0.0000000  0.0000000  0.0000000     0.2500000  0.2500000  0.2500000
                       0.0000000  0.0000000  0.0000000     0.2500000  0.2500000  0.2500000
                       0.0000000  0.0000000  0.0000000     0.2500000  0.2500000  0.2500000
                       0.0000000  0.0000000  0.0000000     0.2500000  0.2500000  0.2500000
                       0.0000000  0.0000000  0.0000000     0.2500000  0.2500000  0.2500000
                       0.0000000  0.0000000  0.0000000     0.2500000  0.2500000  0.2500000
                       0.0000000  0.0000000  0.0000000     0.2500000  0.2500000  0.2500000
                       0.0000000  0.0000000  0.0000000     0.2500000  0.2500000  0.2500000
           tolwfr1     1.00000000E-10
           tolwfr2     0.00000000E+00
           tolwfr3     0.00000000E+00
           tolwfr4     0.00000000E+00
            typat      1  1
              wtk        0.01563    0.12500    0.06250    0.09375    0.37500    0.18750
                         0.04688    0.09375
           xangst      0.0000000000E+00  0.0000000000E+00  0.0000000000E+00
                       1.3577364229E+00  1.3577364229E+00  1.3577364229E+00
            xcart      0.0000000000E+00  0.0000000000E+00  0.0000000000E+00
                       2.5657500000E+00  2.5657500000E+00  2.5657500000E+00
             xred      0.0000000000E+00  0.0000000000E+00  0.0000000000E+00
                       2.5000000000E-01  2.5000000000E-01  2.5000000000E-01
            znucl       14.00000

================================================================================

 chkinp: Checking input parameters for consistency, jdtset=   1.

 chkinp: Checking input parameters for consistency, jdtset=   2.

 chkinp: Checking input parameters for consistency, jdtset=   3.

 chkinp: Checking input parameters for consistency, jdtset=   4.

================================================================================
== DATASET  1 ==================================================================
-   nproc =    1

 Exchange-correlation functional for the present dataset will be:
  LDA: new Teter (4/93) with spin-polarized option - ixc=1
 Citation for XC functional:
  S. Goedecker, M. Teter, J. Huetter, PRB 54, 1703 (1996)

 Real(R)+Recip(G) space primitive vectors, cartesian coordinates (Bohr,Bohr^-1):
 R(1)=  0.0000000  5.1315000  5.1315000  G(1)= -0.0974374  0.0974374  0.0974374
 R(2)=  5.1315000  0.0000000  5.1315000  G(2)=  0.0974374 -0.0974374  0.0974374
 R(3)=  5.1315000  5.1315000  0.0000000  G(3)=  0.0974374  0.0974374 -0.0974374
 Unit cell volume ucvol=  2.7024832E+02 bohr^3
 Angles (23,13,12)=  6.00000000E+01  6.00000000E+01  6.00000000E+01 degrees

 getcut: wavevector=  0.0000  0.0000  0.0000  ngfft=  18  18  18
         ecut(hartree)=      6.000   => boxcut(ratio)=   2.25636

 getcut : COMMENT -
  Note that boxcut > 2.2 ; recall that boxcut=Gcut(box)/Gcut(sphere) = 2
  is sufficient for exact treatment of convolution.
  Such a large boxcut is a waste : you could raise ecut
  e.g. ecut=    7.636752 Hartrees makes boxcut=2


--- Pseudopotential description ------------------------------------------------
- pspini: atom type   1  psp file is /home/gonze/ABINIT/ABINITv7.10.4/trunk/7.10.4-private/tests/Psps_for_tests/14si.pspnc
- pspatm: opening atomic psp file    /home/gonze/ABINIT/ABINITv7.10.4/trunk/7.10.4-private/tests/Psps_for_tests/14si.pspnc
-  Troullier-Martins psp for element  Si        Thu Oct 27 17:31:21 EDT 1994
- 14.00000   4.00000    940714                znucl, zion, pspdat
    1    1    2    2      2001   0.00000      pspcod,pspxc,lmax,lloc,mmax,r2well
    0   5.907  14.692    1   2.0872718        l,e99.0,e99.9,nproj,rcpsp
   0.00000000   0.00000000   0.00000000   0.00000000     rms, ekb1, ekb2, epsatm
    1   2.617   4.181    1   2.0872718        l,e99.0,e99.9,nproj,rcpsp
   0.00000000   0.00000000   0.00000000   0.00000000     rms, ekb1, ekb2, epsatm
    2   0.000   0.000    0   2.0872718        l,e99.0,e99.9,nproj,rcpsp
   0.00000000   0.00000000   0.00000000   0.00000000     rms, ekb1, ekb2, epsatm
    1.80626423934776    0.22824404341771    1.17378968127746   rchrg,fchrg,qchrg
 pspatm: epsatm=    1.43386982
         --- l  ekb(1:nproj) -->
             0    3.287949
             1    1.849886
 pspatm: atomic psp has been read  and splines computed

   2.29419171E+01                                ecore*ucvol(ha*bohr**3)
--------------------------------------------------------------------------------

P newkpt: treating     35 bands with npw=     181 for ikpt=   1 by node    0
P newkpt: treating     35 bands with npw=     187 for ikpt=   2 by node    0
P newkpt: treating     35 bands with npw=     180 for ikpt=   3 by node    0
P newkpt: treating     35 bands with npw=     178 for ikpt=   4 by node    0
P newkpt: treating     35 bands with npw=     188 for ikpt=   5 by node    0
P newkpt: treating     35 bands with npw=     192 for ikpt=   6 by node    0
P newkpt: treating     35 bands with npw=     190 for ikpt=   7 by node    0
P newkpt: treating     35 bands with npw=     200 for ikpt=   8 by node    0

_setup2: Arith. and geom. avg. npw (full set) are     188.297     188.215

================================================================================

     iter   Etot(hartree)      deltaE(h)  residm     vres2
 ETOT  1  -8.8533754534787    -8.853E+00 2.905E-03 4.333E+00
 ETOT  2  -8.8580366452433    -4.661E-03 3.152E-07 1.873E-01
 ETOT  3  -8.8581532485560    -1.166E-04 1.182E-05 3.805E-02
 ETOT  4  -8.8581677489423    -1.450E-05 2.618E-06 5.054E-03
 ETOT  5  -8.8581699164324    -2.167E-06 6.151E-07 3.320E-04
 ETOT  6  -8.8581701388538    -2.224E-07 6.182E-08 5.809E-06
 ETOT  7  -8.8581701420579    -3.204E-09 8.877E-10 1.763E-08
 ETOT  8  -8.8581701420578     7.461E-14 5.294E-11 1.818E-08

 At SCF step    8   max residual=  5.29E-11 < tolwfr=  1.00E-10 =>converged.

 Cartesian components of stress tensor (hartree/bohr^3)
  sigma(1 1)=  9.91736919E-05  sigma(3 2)=  0.00000000E+00
  sigma(2 2)=  9.91736919E-05  sigma(3 1)=  0.00000000E+00
  sigma(3 3)=  9.91736919E-05  sigma(2 1)=  0.00000000E+00


======================================================================
 Calculating and writing out Kohn-Sham electronic Structure file
 Using conjugate gradient wavefunctions and energies (kssform=3)
 number of Gamma centered plane waves    331
 number of Gamma centered shells     19
 number of bands     30
 maximum angular momentum components      3
 Conjugate gradient eigenvalues
   k    eigenvalues [Hartree]
   1     -0.2265  0.2150  0.2150  0.2150  0.3076  0.3076  0.3076  0.3295  0.4932
          0.5091  0.5091  0.6236  0.6236  0.6236  0.7633  1.0830  1.0830  1.0830
          1.1360  1.1360  1.1480  1.1480  1.1480  1.2963  1.2963  1.2963  1.5042
          1.5535  1.5535  1.5535
   2     -0.1967  0.0689  0.1863  0.1863  0.2841  0.3431  0.3431  0.4603  0.4843
          0.4843  0.5348  0.6401  0.7573  0.7573  0.8721  0.8736  0.8736  0.9372
          1.1318  1.1318  1.1920  1.1920  1.2566  1.2858  1.3254  1.3920  1.3920
          1.4663  1.4663  1.5054
   3     -0.1392 -0.0439  0.1698  0.1698  0.2666  0.3375  0.3375  0.4899  0.6140
          0.6140  0.6226  0.6307  0.6307  0.6753  0.9305  0.9441  1.0185  1.0185
          1.0341  1.0341  1.1663  1.2075  1.2075  1.2237  1.2237  1.2410  1.3676
          1.4050  1.4050  1.4239
   4     -0.1862  0.0855  0.1439  0.1439  0.2534  0.3272  0.4264  0.4264  0.5039
          0.5540  0.6218  0.6934  0.6934  0.7180  0.8532  0.8532  0.9063  0.9548
          0.9895  1.1484  1.2079  1.2296  1.2296  1.2983  1.2983  1.3217  1.3377
          1.4981  1.5248  1.5401
   5     -0.1257 -0.0211  0.0824  0.1321  0.2675  0.3766  0.4222  0.4329  0.5853
          0.6073  0.6680  0.6761  0.6841  0.8314  0.8753  0.8998  0.9297  0.9372
          0.9495  1.0515  1.1030  1.1451  1.1563  1.2309  1.2877  1.2980  1.3065
          1.3461  1.4045  1.4776
   6     -0.1508  0.0120  0.0741  0.1649  0.3017  0.3896  0.4015  0.4341  0.4558
          0.5654  0.6728  0.7025  0.7026  0.8241  0.8529  0.8567  0.9071  0.9984
          1.0149  1.1040  1.1149  1.1614  1.1926  1.2074  1.2362  1.2871  1.3482
          1.3601  1.4856  1.5016
   7     -0.0734 -0.0734  0.1080  0.1080  0.2373  0.2373  0.5798  0.5798  0.6274
          0.6274  0.6798  0.6798  0.6853  0.6853  0.9148  0.9148  0.9329  0.9329
          0.9591  0.9591  0.9869  0.9869  1.1917  1.1917  1.3045  1.3045  1.4584
          1.4584  1.4745  1.4745
   8     -0.0675 -0.0675  0.0702  0.0702  0.3706  0.3706  0.3948  0.3948  0.6034
          0.6034  0.6927  0.6927  0.8182  0.8182  0.8878  0.8878  0.9117  0.9117
          0.9565  0.9565  1.0857  1.0857  1.2279  1.2279  1.2290  1.2290  1.2637
          1.2637  1.4444  1.4444
 Test on the normalization of the wavefunctions
  min sum_G |a(n,k,G)| =  1.000000
  max sum_G |a(n,k,G)| =  1.000000
 Test on the orthogonalization of the wavefunctions
  min sum_G a(n,k,G)a(n',k,G) =  0.000000
  max sum_G a(n,k,G)a(n',k,G) =  0.000000

================================================================================

 ----iterations are completed or convergence reached----

 Mean square residual over all n,k,spin=   5.0315E-08; max=  1.2223E-05
   0.0000  0.0000  0.0000    1  1.59352E-06 kpt; spin; max resid(k); each band:
  5.24E-14 2.26E-11 5.18E-11 5.29E-11 3.30E-14 3.30E-14 3.30E-14 8.29E-14
  5.09E-14 2.19E-14 2.19E-14 1.27E-14 1.42E-14 1.26E-14 3.47E-14 7.12E-14
  7.25E-14 8.62E-14 9.86E-13 3.50E-12 1.12E-13 1.12E-13 1.12E-13 1.15E-11
  1.15E-11 1.15E-11 9.45E-13 9.44E-13 9.44E-13 9.44E-13 8.93E-11 5.44E-11
  4.38E-08 1.59E-06 2.82E-11
   0.2500  0.0000  0.0000    1  3.51151E-09 kpt; spin; max resid(k); each band:
  5.22E-14 5.47E-14 5.42E-13 5.43E-13 5.39E-14 3.14E-14 3.13E-14 6.91E-14
  2.14E-14 2.15E-14 3.41E-14 4.36E-14 2.11E-14 2.11E-14 5.43E-14 3.61E-14
  3.61E-14 3.78E-14 6.92E-14 6.92E-14 3.88E-14 3.89E-14 5.32E-14 7.98E-14
  1.37E-11 1.97E-11 1.97E-11 1.61E-13 1.66E-13 3.39E-13 3.36E-13 1.70E-11
  7.71E-11 2.98E-11 3.51E-09
   0.5000  0.0000  0.0000    1  4.04741E-10 kpt; spin; max resid(k); each band:
  5.90E-14 4.61E-14 7.49E-13 7.49E-13 5.78E-14 2.59E-14 2.56E-14 2.41E-14
  3.05E-14 3.05E-14 6.10E-14 3.30E-14 3.33E-14 6.14E-14 7.42E-14 5.05E-14
  4.43E-14 4.38E-14 7.76E-12 7.76E-12 1.28E-13 1.28E-12 1.28E-12 7.51E-14
  1.77E-12 5.75E-14 8.11E-13 1.18E-13 1.18E-13 1.40E-13 3.35E-14 3.66E-14
  8.51E-13 2.53E-12 4.05E-10
   0.2500  0.2500  0.0000    1  1.22232E-05 kpt; spin; max resid(k); each band:
  6.40E-14 2.66E-12 4.92E-14 4.92E-14 3.17E-14 7.60E-14 2.64E-12 2.64E-12
  1.10E-13 2.22E-14 4.97E-14 1.39E-14 1.39E-14 8.18E-14 4.55E-14 4.55E-14
  5.27E-12 5.65E-14 4.51E-14 2.59E-13 8.92E-14 1.14E-12 1.14E-12 4.27E-14
  4.27E-14 1.05E-13 2.64E-13 3.53E-13 2.07E-11 8.38E-12 8.50E-12 3.48E-12
  6.64E-12 7.35E-11 1.22E-05
   0.5000  0.2500  0.0000    1  9.80060E-11 kpt; spin; max resid(k); each band:
  5.78E-14 5.77E-14 4.42E-14 4.91E-14 3.19E-14 3.83E-14 5.51E-14 3.43E-14
  4.73E-14 3.46E-14 3.49E-14 6.43E-14 3.73E-14 6.71E-14 3.20E-14 6.56E-14
  4.10E-14 5.47E-14 4.26E-14 5.36E-14 7.81E-14 6.56E-14 2.34E-13 1.07E-13
  7.28E-14 1.83E-14 6.66E-14 8.15E-14 2.32E-13 5.97E-14 1.96E-13 2.36E-13
  1.09E-12 2.55E-11 9.80E-11
  -0.2500  0.2500  0.0000    1  2.11763E-07 kpt; spin; max resid(k); each band:
  5.65E-14 6.05E-14 4.13E-14 5.24E-14 3.70E-14 3.23E-14 5.38E-14 4.93E-14
  2.55E-14 3.73E-14 4.53E-14 3.22E-14 4.49E-14 5.93E-14 7.22E-14 5.93E-12
  3.22E-14 8.94E-12 7.50E-14 1.92E-13 4.49E-14 6.99E-14 7.63E-14 1.26E-13
  7.98E-14 1.13E-11 2.10E-13 1.59E-13 7.31E-13 1.10E-12 6.51E-12 7.52E-11
  5.41E-11 2.12E-07 1.08E-08
   0.5000  0.5000  0.0000    1  7.31932E-11 kpt; spin; max resid(k); each band:
  5.93E-14 5.93E-14 4.79E-14 4.78E-14 2.96E-14 2.96E-14 6.77E-12 6.77E-12
  4.07E-14 3.86E-14 7.33E-14 7.33E-14 2.29E-14 2.29E-14 4.56E-14 4.56E-14
  2.10E-14 2.31E-14 1.42E-12 1.42E-12 4.38E-14 4.38E-14 4.03E-14 4.03E-14
  3.21E-11 3.21E-11 1.09E-13 1.23E-13 1.35E-13 1.35E-13 4.13E-13 3.11E-12
  1.65E-12 1.73E-12 7.32E-11
  -0.2500  0.5000  0.2500    1  2.24115E-11 kpt; spin; max resid(k); each band:
  1.64E-12 1.65E-12 3.99E-14 3.99E-14 3.60E-14 3.60E-14 4.35E-14 4.43E-14
  4.90E-14 4.90E-14 5.22E-14 5.18E-14 2.81E-14 2.81E-14 3.47E-14 3.66E-14
  4.90E-12 4.90E-12 7.93E-12 1.60E-11 8.89E-14 8.89E-14 1.48E-13 7.63E-14
  1.36E-13 1.36E-13 1.40E-11 1.62E-11 1.44E-13 1.44E-13 1.04E-12 4.35E-12
  1.09E-12 2.24E-11 1.55E-12
 reduced coordinates (array xred) for    2 atoms
       0.000000000000      0.000000000000      0.000000000000
       0.250000000000      0.250000000000      0.250000000000
 rms dE/dt=  1.5029E-30; max dE/dt=  0.0000E+00; dE/dt below (all hartree)
    1       0.000000000000     -0.000000000000      0.000000000000
    2       0.000000000000      0.000000000000      0.000000000000

 cartesian coordinates (angstrom) at end:
    1      0.00000000000000     0.00000000000000     0.00000000000000
    2      1.35773642293979     1.35773642293979     1.35773642293979

 cartesian forces (hartree/bohr) at end:
    1      0.00000000000000    -0.00000000000000     0.00000000000000
    2     -0.00000000000000     0.00000000000000    -0.00000000000000
 frms,max,avg= 1.7935062E-31 1.7935062E-31   0.000E+00  0.000E+00  0.000E+00 h/b

 cartesian forces (eV/Angstrom) at end:
    1      0.00000000000000    -0.00000000000000     0.00000000000000
    2     -0.00000000000000     0.00000000000000    -0.00000000000000
 frms,max,avg= 9.2225791E-30 9.2225791E-30   0.000E+00  0.000E+00  0.000E+00 e/A
 length scales= 10.263000000000 10.263000000000 10.263000000000 bohr
              =  5.430945691759  5.430945691759  5.430945691759 angstroms
 prteigrs : about to open file t84o_DS1_EIG
 Fermi (or HOMO) energy (hartree) =   0.21497   Average Vxc (hartree)=  -0.35216
 Eigenvalues (hartree) for nkpt=   8  k points:
 kpt#   1, nband= 35, wtk=  0.01563, kpt=  0.0000  0.0000  0.0000 (reduced coord)
  -0.22646   0.21497   0.21497   0.21497   0.30762   0.30762   0.30762   0.32949
   0.49316   0.50913   0.50913   0.62361   0.62361   0.62361   0.76335   1.08297
   1.08297   1.08297   1.13598   1.13598   1.14805   1.14805   1.14805   1.29629
   1.29629   1.29629   1.50416   1.55347   1.55347   1.55347   1.67906   1.67906
   1.72737   1.72762   1.72936
 kpt#   2, nband= 35, wtk=  0.12500, kpt=  0.2500  0.0000  0.0000 (reduced coord)
  -0.19674   0.06895   0.18631   0.18631   0.28414   0.34307   0.34307   0.46030
   0.48428   0.48428   0.53479   0.64012   0.75731   0.75731   0.87208   0.87357
   0.87357   0.93717   1.13179   1.13179   1.19197   1.19197   1.25661   1.28581
   1.32542   1.39204   1.39204   1.46631   1.46631   1.50541   1.50541   1.59145
   1.61382   1.62859   1.62859
 kpt#   3, nband= 35, wtk=  0.06250, kpt=  0.5000  0.0000  0.0000 (reduced coord)
  -0.13915  -0.04392   0.16983   0.16983   0.26662   0.33755   0.33755   0.48987
   0.61399   0.61399   0.62259   0.63074   0.63074   0.67531   0.93052   0.94409
   1.01845   1.01845   1.03405   1.03405   1.16626   1.20747   1.20747   1.22366
   1.22366   1.24097   1.36760   1.40495   1.40495   1.42392   1.43806   1.43806
   1.52779   1.55520   1.73369
 kpt#   4, nband= 35, wtk=  0.09375, kpt=  0.2500  0.2500  0.0000 (reduced coord)
  -0.18619   0.08553   0.14386   0.14386   0.25339   0.32724   0.42642   0.42642
   0.50392   0.55396   0.62182   0.69340   0.69340   0.71802   0.85322   0.85322
   0.90632   0.95479   0.98947   1.14838   1.20787   1.22965   1.22965   1.29833
   1.29833   1.32170   1.33770   1.49807   1.52483   1.54011   1.54011   1.58855
   1.58855   1.61245   1.66263
 kpt#   5, nband= 35, wtk=  0.37500, kpt=  0.5000  0.2500  0.0000 (reduced coord)
  -0.12574  -0.02107   0.08238   0.13214   0.26749   0.37656   0.42217   0.43289
   0.58531   0.60735   0.66800   0.67613   0.68407   0.83141   0.87534   0.89979
   0.92973   0.93716   0.94953   1.05152   1.10298   1.14508   1.15633   1.23090
   1.28774   1.29799   1.30651   1.34609   1.40450   1.47760   1.50215   1.55659
   1.57243   1.61386   1.63489
 kpt#   6, nband= 35, wtk=  0.18750, kpt= -0.2500  0.2500  0.0000 (reduced coord)
  -0.15081   0.01205   0.07414   0.16493   0.30167   0.38964   0.40146   0.43413
   0.45577   0.56543   0.67280   0.70253   0.70256   0.82413   0.85290   0.85666
   0.90712   0.99840   1.01494   1.10400   1.11491   1.16141   1.19264   1.20745
   1.23624   1.28709   1.34821   1.36015   1.48562   1.50158   1.53216   1.57876
   1.59115   1.60895   1.61220
 kpt#   7, nband= 35, wtk=  0.04688, kpt=  0.5000  0.5000  0.0000 (reduced coord)
  -0.07339  -0.07339   0.10800   0.10800   0.23733   0.23733   0.57984   0.57984
   0.62744   0.62744   0.67985   0.67985   0.68529   0.68529   0.91483   0.91483
   0.93294   0.93294   0.95908   0.95908   0.98686   0.98686   1.19169   1.19169
   1.30447   1.30447   1.45840   1.45840   1.47448   1.47448   1.55508   1.55508
   1.56936   1.56936   1.66799
 kpt#   8, nband= 35, wtk=  0.09375, kpt= -0.2500  0.5000  0.2500 (reduced coord)
  -0.06749  -0.06749   0.07016   0.07016   0.37064   0.37064   0.39478   0.39478
   0.60342   0.60342   0.69267   0.69267   0.81818   0.81818   0.88778   0.88778
   0.91169   0.91169   0.95649   0.95649   1.08568   1.08568   1.22794   1.22794
   1.22902   1.22902   1.26372   1.26372   1.44437   1.44437   1.55763   1.55763
   1.61780   1.61780   1.70500
 Fermi (or HOMO) energy (eV) =   5.84952   Average Vxc (eV)=  -9.58281
 Eigenvalues (   eV  ) for nkpt=   8  k points:
 kpt#   1, nband= 35, wtk=  0.01563, kpt=  0.0000  0.0000  0.0000 (reduced coord)
  -6.16234   5.84952   5.84952   5.84952   8.37086   8.37086   8.37086   8.96589
  13.41950  13.85408  13.85408  16.96920  16.96920  16.96920  20.77172  29.46922
  29.46922  29.46922  30.91149  30.91149  31.23994  31.23994  31.23994  35.27388
  35.27388  35.27388  40.93030  42.27208  42.27208  42.27208  45.68957  45.68957
  47.00414  47.01099  47.05816
 kpt#   2, nband= 35, wtk=  0.12500, kpt=  0.2500  0.0000  0.0000 (reduced coord)
  -5.35351   1.87613   5.06963   5.06963   7.73189   9.33553   9.33553  12.52538
  13.17789  13.17789  14.55232  17.41842  20.60752  20.60752  23.73051  23.77101
  23.77101  25.50178  30.79765  30.79765  32.43517  32.43517  34.19411  34.98878
  36.06663  37.87942  37.87942  39.90025  39.90025  40.96436  40.96436  43.30546
  43.91417  44.31626  44.31626
 kpt#   3, nband= 35, wtk=  0.06250, kpt=  0.5000  0.0000  0.0000 (reduced coord)
  -3.78654  -1.19526   4.62120   4.62120   7.25514   9.18508   9.18508  13.32994
  16.70756  16.70756  16.94152  17.16323  17.16323  18.37600  25.32070  25.69011
  27.71344  27.71344  28.13804  28.13804  31.73556  32.85705  32.85705  33.29736
  33.29736  33.76861  37.21435  38.23066  38.23066  38.74687  39.13168  39.13168
  41.57323  42.31912  47.17619
 kpt#   4, nband= 35, wtk=  0.09375, kpt=  0.2500  0.2500  0.0000 (reduced coord)
  -5.06655   2.32741   3.91473   3.91473   6.89517   8.90466  11.60342  11.60342
  13.71238  15.07403  16.92053  18.86850  18.86850  19.53841  23.21722  23.21722
  24.66235  25.98127  26.92495  31.24905  32.86794  33.46039  33.46039  35.32925
  35.32925  35.96523  36.40069  40.76458  41.49274  41.90851  41.90851  43.22654
  43.22654  43.87707  45.24234
 kpt#   5, nband= 35, wtk=  0.37500, kpt=  0.5000  0.2500  0.0000 (reduced coord)
  -3.42149  -0.57336   2.24166   3.59565   7.27883  10.24668  11.48794  11.77967
  15.92711  16.52680  18.17731  18.39838  18.61459  22.62386  23.81929  24.48440
  25.29926  25.50152  25.83789  28.61328  30.01374  31.15927  31.46532  33.49444
  35.04120  35.32009  35.55185  36.62890  38.21836  40.20750  40.87548  42.35687
  42.78791  43.91529  44.48770
 kpt#   6, nband= 35, wtk=  0.18750, kpt= -0.2500  0.2500  0.0000 (reduced coord)
  -4.10368   0.32784   2.01757   4.48793   8.20873  10.60251  10.92435  11.81318
  12.40202  15.38619  18.30777  19.11687  19.11776  22.42565  23.20849  23.31093
  24.68387  27.16783  27.61791  30.04132  30.33830  31.60347  32.45337  32.85628
  33.63972  35.02361  36.68655  37.01151  40.42577  40.86005  41.69229  42.96021
  43.29726  43.78186  43.87022
 kpt#   7, nband= 35, wtk=  0.04688, kpt=  0.5000  0.5000  0.0000 (reduced coord)
  -1.99693  -1.99693   2.93886   2.93886   6.45820   6.45820  15.77827  15.77827
  17.07360  17.07360  18.49965  18.49965  18.64760  18.64760  24.89370  24.89370
  25.38647  25.38647  26.09801  26.09801  26.85386  26.85386  32.42766  32.42766
  35.49657  35.49657  39.68520  39.68520  40.12278  40.12278  42.31591  42.31591
  42.70443  42.70443  45.38829
 kpt#   8, nband= 35, wtk=  0.09375, kpt= -0.2500  0.5000  0.2500 (reduced coord)
  -1.83662  -1.83662   1.90913   1.90913  10.08560  10.08560  10.74247  10.74247
  16.41995  16.41995  18.84856  18.84856  22.26381  22.26381  24.15777  24.15777
  24.80842  24.80842  26.02742  26.02742  29.54272  29.54272  33.41385  33.41385
  33.44325  33.44325  34.38752  34.38752  39.30338  39.30338  42.38520  42.38520
  44.02264  44.02264  46.39552
 Total charge density [el/Bohr^3]
,     Maximum=    8.6522E-02  at reduced coord.    0.1111    0.1111    0.6667
,Next maximum=    8.6522E-02  at reduced coord.    0.1111    0.6667    0.1111
,     Minimum=    3.1369E-03  at reduced coord.    0.5000    0.5000    0.5000
,Next minimum=    3.2678E-03  at reduced coord.    0.7778    0.7222    0.7222
,  Integrated=    8.0000E+00

--------------------------------------------------------------------------------
 Components of total free energy (in Hartree) :

    Kinetic energy  =  3.01335525917109E+00
    Hartree energy  =  5.52776475163075E-01
    XC energy       = -3.53505972344498E+00
    Ewald energy    = -8.39800922793231E+00
    PspCore energy  =  8.48919894704955E-02
    Loc. psp. energy= -2.49365793857253E+00
    NL   psp  energy=  1.91753302408734E+00
    >>>>>>>>> Etotal= -8.85817014205781E+00

 Other information on the energy :
    Total energy(eV)= -2.41043068032726E+02 ; Band energy (Ha)=   2.2481648130E-01
--------------------------------------------------------------------------------

 Cartesian components of stress tensor (hartree/bohr^3)
  sigma(1 1)=  9.91736919E-05  sigma(3 2)=  0.00000000E+00
  sigma(2 2)=  9.91736919E-05  sigma(3 1)=  0.00000000E+00
  sigma(3 3)=  9.91736919E-05  sigma(2 1)=  0.00000000E+00

-Cartesian components of stress tensor (GPa)         [Pressure= -2.9178E+00 GPa]
- sigma(1 1)=  2.91779026E+00  sigma(3 2)=  0.00000000E+00
- sigma(2 2)=  2.91779026E+00  sigma(3 1)=  0.00000000E+00
- sigma(3 3)=  2.91779026E+00  sigma(2 1)=  0.00000000E+00

================================================================================
== DATASET  2 ==================================================================
-   nproc =    1

 mkfilename : getkss/=0, take file _KSS from output of DATASET   1.

 Exchange-correlation functional for the present dataset will be:
  LDA: new Teter (4/93) with spin-polarized option - ixc=1
 Citation for XC functional:
  S. Goedecker, M. Teter, J. Huetter, PRB 54, 1703 (1996)

 SCREENING: Calculation of the susceptibility and dielectric matrices 

 Based on a program developped by R.W. Godby, V. Olevano, G. Onida, and L. Reining.
 Incorporated in ABINIT by V. Olevano, G.-M. Rignanese, and M. Torrent.
.Using double precision arithmetic ; gwpc =  8

 Real(R)+Recip(G) space primitive vectors, cartesian coordinates (Bohr,Bohr^-1):
 R(1)=  0.0000000  5.1315000  5.1315000  G(1)= -0.0974374  0.0974374  0.0974374
 R(2)=  5.1315000  0.0000000  5.1315000  G(2)=  0.0974374 -0.0974374  0.0974374
 R(3)=  5.1315000  5.1315000  0.0000000  G(3)=  0.0974374  0.0974374 -0.0974374
 Unit cell volume ucvol=  2.7024832E+02 bohr^3
 Angles (23,13,12)=  6.00000000E+01  6.00000000E+01  6.00000000E+01 degrees

--- Pseudopotential description ------------------------------------------------
- pspini: atom type   1  psp file is /home/gonze/ABINIT/ABINITv7.10.4/trunk/7.10.4-private/tests/Psps_for_tests/14si.pspnc
- pspatm: opening atomic psp file    /home/gonze/ABINIT/ABINITv7.10.4/trunk/7.10.4-private/tests/Psps_for_tests/14si.pspnc
-  Troullier-Martins psp for element  Si        Thu Oct 27 17:31:21 EDT 1994
- 14.00000   4.00000    940714                znucl, zion, pspdat
    1    1    2    2      2001   0.00000      pspcod,pspxc,lmax,lloc,mmax,r2well
    0   5.907  14.692    1   2.0872718        l,e99.0,e99.9,nproj,rcpsp
   0.00000000   0.00000000   0.00000000   0.00000000     rms, ekb1, ekb2, epsatm
    1   2.617   4.181    1   2.0872718        l,e99.0,e99.9,nproj,rcpsp
   0.00000000   0.00000000   0.00000000   0.00000000     rms, ekb1, ekb2, epsatm
    2   0.000   0.000    0   2.0872718        l,e99.0,e99.9,nproj,rcpsp
   0.00000000   0.00000000   0.00000000   0.00000000     rms, ekb1, ekb2, epsatm
    1.80626423934776    0.22824404341771    1.17378968127746   rchrg,fchrg,qchrg
 pspatm: epsatm=    1.43386982
         --- l  ekb(1:nproj) -->
             0    3.287949
             1    1.849886
 pspatm: atomic psp has been read  and splines computed

--------------------------------------------------------------------------------

 ==== K-mesh for the wavefunctions ====
 Number of points in the irreducible wedge :     8
 Reduced coordinates and weights : 

     1)     0.00000000E+00  0.00000000E+00  0.00000000E+00       0.01563
     2)     2.50000000E-01  0.00000000E+00  0.00000000E+00       0.12500
     3)     5.00000000E-01  0.00000000E+00  0.00000000E+00       0.06250
     4)     2.50000000E-01  2.50000000E-01  0.00000000E+00       0.09375
     5)     5.00000000E-01  2.50000000E-01  0.00000000E+00       0.37500
     6)    -2.50000000E-01  2.50000000E-01  0.00000000E+00       0.18750
     7)     5.00000000E-01  5.00000000E-01  0.00000000E+00       0.04688
     8)    -2.50000000E-01  5.00000000E-01  2.50000000E-01       0.09375

 Together with 48 symmetry operations and time-reversal symmetry 
 yields    64 points in the full Brillouin Zone.


 ==== Q-mesh for the screening function ====
 Number of points in the irreducible wedge :     8
 Reduced coordinates and weights : 

     1)     0.00000000E+00  0.00000000E+00  0.00000000E+00       0.01563
     2)     2.50000000E-01  0.00000000E+00  0.00000000E+00       0.12500
     3)     5.00000000E-01  0.00000000E+00  0.00000000E+00       0.06250
     4)     2.50000000E-01  2.50000000E-01  0.00000000E+00       0.09375
     5)     5.00000000E-01  2.50000000E-01  0.00000000E+00       0.37500
     6)    -2.50000000E-01  2.50000000E-01  0.00000000E+00       0.18750
     7)     5.00000000E-01  5.00000000E-01  0.00000000E+00       0.04688
     8)    -2.50000000E-01  5.00000000E-01  2.50000000E-01       0.09375

 Together with 48 symmetry operations and time-reversal symmetry 
 yields    64 points in the full Brillouin Zone.


 setmesh: FFT mesh size selected  =  20x 20x 20
          total number of points  =     8000


 k       eigenvalues [eV]
  1         -6.16   5.85   5.85   5.85   8.37   8.37   8.37   8.97  13.42  13.85
            13.85  16.97  16.97  16.97  20.77  29.47
  2         -5.35   1.88   5.07   5.07   7.73   9.34   9.34  12.53  13.18  13.18
            14.55  17.42  20.61  20.61  23.73  23.77
  3         -3.79  -1.20   4.62   4.62   7.26   9.19   9.19  13.33  16.71  16.71
            16.94  17.16  17.16  18.38  25.32  25.69
  4         -5.07   2.33   3.91   3.91   6.90   8.90  11.60  11.60  13.71  15.07
            16.92  18.87  18.87  19.54  23.22  23.22
  5         -3.42  -0.57   2.24   3.60   7.28  10.25  11.49  11.78  15.93  16.53
            18.18  18.40  18.61  22.62  23.82  24.48
  6         -4.10   0.33   2.02   4.49   8.21  10.60  10.92  11.81  12.40  15.39
            18.31  19.12  19.12  22.43  23.21  23.31
  7         -2.00  -2.00   2.94   2.94   6.46   6.46  15.78  15.78  17.07  17.07
            18.50  18.50  18.65  18.65  24.89  24.89
  8         -1.84  -1.84   1.91   1.91  10.09  10.09  10.74  10.74  16.42  16.42
            18.85  18.85  22.26  22.26  24.16  24.16
 Number of electrons calculated from density =    8.0000; Expected =    8.0000
 average of density, n =  0.029602
 r_s =    2.0054
 omega_plasma =   16.5966 [eV]


 calculating chi0 at frequencies [eV] :
  1    0.000000E+00    0.000000E+00
  2    6.802846E+00    0.000000E+00
  3    1.360569E+01    0.000000E+00
  4    2.040854E+01    0.000000E+00
  5    2.721138E+01    0.000000E+00
  6    0.000000E+00    4.099916E+00
  7    0.000000E+00    1.123829E+01
  8    0.000000E+00    2.366691E+01
  9    0.000000E+00    4.530639E+01


--------------------------------------------------------------------------------
  q-point number  1        q = ( 0.000000, 0.000000, 0.000000) [r.l.u.]
--------------------------------------------------------------------------------
  chi0(G,G') at the    1 th omega   0.0000   0.0000 [eV]
       1       2       3       4       5       6       7       8       9
    1  -0.000   0.000  -0.000  -0.000   0.000   0.000  -0.000  -0.000   0.000
        0.000   0.000   0.000  -0.000  -0.000   0.000   0.000  -0.000  -0.000

    2   0.000 -15.574   0.000  -0.242  -0.000  -0.187  -0.000  -0.201   0.000
       -0.000   0.000  -5.111  -0.000  -0.367   0.000  -0.349  -0.000  -0.361

  chi0(G,G') at the    2 th omega   6.8028   0.0000 [eV]
       1       2       3       4       5       6       7       8       9
    1   0.000  -0.000  -0.000   0.000   0.000  -0.000  -0.000   0.000   0.000
       -0.000   0.000  -0.000  -0.000   0.000   0.000  -0.000  -0.000   0.000

    2   0.000 -17.150   1.485   0.149  -0.216   0.209  -0.216   0.193  -0.216
        0.000  -2.361  -1.332   0.133   1.082   0.133   1.103   0.133   1.089

  chi0(G,G') at the    3 th omega  13.6057   0.0000 [eV]
       1       2       3       4       5       6       7       8       9
    1   0.000  -0.000   0.000   0.000  -0.000  -0.000   0.000   0.000  -0.000
       -0.000  -0.000  -0.000   0.000   0.000  -0.000  -0.000   0.000   0.000

    2  -0.000 -13.847   3.294   0.372  -0.028   0.459  -0.029   0.435  -0.028
        0.000 -18.549   1.344  -0.206  -1.790  -0.205  -1.751  -0.205  -1.774

  chi0(G,G') at the    4 th omega  20.4085   0.0000 [eV]
       1       2       3       4       5       6       7       8       9
    1   0.000  -0.000   0.000   0.000  -0.000  -0.000   0.000   0.000  -0.000
       -0.000  -0.000  -0.000   0.000   0.000  -0.000  -0.000   0.000   0.000

    2  -0.000   5.107  -3.291  -1.301   0.085  -0.791   0.080  -0.959   0.082
        0.000 -20.230   0.067  -2.438  -2.454  -2.409  -2.558  -2.419  -2.541

  chi0(G,G') at the    5 th omega  27.2114   0.0000 [eV]
       1       2       3       4       5       6       7       8       9
    1   0.000  -0.000   0.000   0.000  -0.000  -0.000   0.000   0.000  -0.000
       -0.000  -0.000  -0.000   0.000   0.000  -0.000  -0.000   0.000   0.000

    2  -0.000   9.230   0.148   0.325   0.248   0.223   0.248   0.244   0.248
        0.000  -2.694   0.182   0.285  -0.719   0.288  -0.739   0.287  -0.714

  chi0(G,G') at the    6 th omega   0.0000   4.0999 [eV]
       1       2       3       4       5       6       7       8       9
    1  -0.000   0.000  -0.000  -0.000   0.000   0.000  -0.000  -0.000   0.000
        0.000   0.000   0.000  -0.000  -0.000   0.000   0.000  -0.000  -0.000

    2   0.000 -12.996  -0.000  -0.137  -0.000  -0.084   0.000  -0.098   0.000
       -0.000  -0.000  -3.735  -0.000  -0.285   0.000  -0.268  -0.000  -0.280

  chi0(G,G') at the    7 th omega   0.0000  11.2383 [eV]
       1       2       3       4       5       6       7       8       9
    1  -0.000   0.000  -0.000  -0.000   0.000   0.000  -0.000  -0.000   0.000
        0.000   0.000   0.000  -0.000  -0.000   0.000   0.000  -0.000  -0.000

    2   0.000  -7.738  -0.000  -0.021  -0.000   0.023   0.000   0.011   0.000
       -0.000  -0.000  -1.774  -0.000  -0.181   0.000  -0.167  -0.000  -0.177

  chi0(G,G') at the    8 th omega   0.0000  23.6669 [eV]
       1       2       3       4       5       6       7       8       9
    1  -0.000   0.000  -0.000  -0.000   0.000   0.000  -0.000  -0.000   0.000
        0.000   0.000   0.000  -0.000  -0.000   0.000   0.000  -0.000  -0.000

    2   0.000  -3.424  -0.000  -0.014  -0.000   0.012   0.000   0.005   0.000
       -0.000   0.000  -0.630  -0.000  -0.091   0.000  -0.083  -0.000  -0.089

  chi0(G,G') at the    9 th omega   0.0000  45.3064 [eV]
       1       2       3       4       5       6       7       8       9
    1  -0.000   0.000  -0.000  -0.000   0.000   0.000  -0.000  -0.000   0.000
        0.000   0.000   0.000  -0.000  -0.000   0.000   0.000  -0.000  -0.000

    2   0.000  -1.227   0.000  -0.010  -0.000   0.001   0.000  -0.002   0.000
       -0.000   0.000  -0.195  -0.000  -0.033   0.000  -0.030  -0.000  -0.032

 For q-point:  0.000010 0.000020 0.000030
  dielectric constant =  23.6278
  dielectric constant without local fields =  25.8222

  Average fulfillment of the sum rule on Im[epsilon] for q-point    1 :     34.63  [%]
  Heads and wings of the symmetrical epsilon^-1(G,G') 

   Upper and lower wings at the    1 th omega   0.0000   0.0000 [eV]
       1       2       3       4       5       6       7       8       9
      0.042   0.004  -0.004  -0.011   0.011   0.011  -0.011  -0.004   0.004
     -0.000   0.004   0.004  -0.011  -0.011   0.011   0.011  -0.004  -0.004
       1       2       3       4       5       6       7       8       9
      0.042   0.004  -0.004  -0.011   0.011   0.011  -0.011  -0.004   0.004
     -0.000  -0.004  -0.004   0.011   0.011  -0.011  -0.011   0.004   0.004


   Upper and lower wings at the    2 th omega   6.8028   0.0000 [eV]
       1       2       3       4       5       6       7       8       9
     -0.166   0.003   0.002  -0.008  -0.007   0.008   0.007  -0.003  -0.002
     -0.023  -0.002   0.003   0.007  -0.008  -0.007   0.008   0.002  -0.003
       1       2       3       4       5       6       7       8       9
     -0.166  -0.002  -0.003   0.007   0.008  -0.007  -0.008   0.002   0.003
     -0.023  -0.003   0.002   0.008  -0.007  -0.008   0.007   0.003  -0.002


   Upper and lower wings at the    3 th omega  13.6057   0.0000 [eV]
       1       2       3       4       5       6       7       8       9
     -0.931   0.038   0.006  -0.111  -0.018   0.111   0.018  -0.038  -0.006
     -0.277  -0.006   0.038   0.018  -0.111  -0.018   0.111   0.006  -0.038
       1       2       3       4       5       6       7       8       9
     -0.931  -0.006  -0.038   0.018   0.111  -0.018  -0.111   0.006   0.038
     -0.277  -0.038   0.006   0.111  -0.018  -0.111   0.018   0.038  -0.006


   Upper and lower wings at the    4 th omega  20.4085   0.0000 [eV]
       1       2       3       4       5       6       7       8       9
      1.719  -0.026  -0.211   0.081   0.599  -0.081  -0.599   0.026   0.211
     -2.615   0.211  -0.026  -0.599   0.081   0.599  -0.081  -0.211   0.026
       1       2       3       4       5       6       7       8       9
      1.719   0.211   0.026  -0.599  -0.081   0.599   0.081  -0.211  -0.026
     -2.615   0.026  -0.211  -0.081   0.599   0.081  -0.599  -0.026   0.211


   Upper and lower wings at the    5 th omega  27.2114   0.0000 [eV]
       1       2       3       4       5       6       7       8       9
      1.879  -0.052   0.022   0.165  -0.068  -0.165   0.068   0.052  -0.022
     -0.114  -0.022  -0.052   0.068   0.165  -0.068  -0.165   0.022   0.052
       1       2       3       4       5       6       7       8       9
      1.879  -0.022   0.052   0.068  -0.165  -0.068   0.165   0.022  -0.052
     -0.114   0.052   0.022  -0.165  -0.068   0.165   0.068  -0.052  -0.022


   Upper and lower wings at the    6 th omega   0.0000   4.0999 [eV]
       1       2       3       4       5       6       7       8       9
      0.099   0.006  -0.006  -0.017   0.017   0.017  -0.017  -0.006   0.006
      0.000   0.006   0.006  -0.017  -0.017   0.017   0.017  -0.006  -0.006
       1       2       3       4       5       6       7       8       9
      0.099   0.006  -0.006  -0.017   0.017   0.017  -0.017  -0.006   0.006
      0.000  -0.006  -0.006   0.017   0.017  -0.017  -0.017   0.006   0.006


   Upper and lower wings at the    7 th omega   0.0000  11.2383 [eV]
       1       2       3       4       5       6       7       8       9
      0.324   0.008  -0.008  -0.024   0.024   0.024  -0.024  -0.008   0.008
      0.000   0.008   0.008  -0.024  -0.024   0.024   0.024  -0.008  -0.008
       1       2       3       4       5       6       7       8       9
      0.324   0.008  -0.008  -0.024   0.024   0.024  -0.024  -0.008   0.008
      0.000  -0.008  -0.008   0.024   0.024  -0.024  -0.024   0.008   0.008


   Upper and lower wings at the    8 th omega   0.0000  23.6669 [eV]
       1       2       3       4       5       6       7       8       9
      0.649   0.006  -0.006  -0.018   0.018   0.018  -0.018  -0.006   0.006
      0.000   0.006   0.006  -0.018  -0.018   0.018   0.018  -0.006  -0.006
       1       2       3       4       5       6       7       8       9
      0.649   0.006  -0.006  -0.018   0.018   0.018  -0.018  -0.006   0.006
      0.000  -0.006  -0.006   0.018   0.018  -0.018  -0.018   0.006   0.006


   Upper and lower wings at the    9 th omega   0.0000  45.3064 [eV]
       1       2       3       4       5       6       7       8       9
      0.866   0.003  -0.003  -0.008   0.008   0.008  -0.008  -0.003   0.003
      0.000   0.003   0.003  -0.008  -0.008   0.008   0.008  -0.003  -0.003
       1       2       3       4       5       6       7       8       9
      0.866   0.003  -0.003  -0.008   0.008   0.008  -0.008  -0.003   0.003
      0.000  -0.003  -0.003   0.008   0.008  -0.008  -0.008   0.003   0.003




--------------------------------------------------------------------------------
  q-point number  2        q = ( 0.250000, 0.000000, 0.000000) [r.l.u.]
--------------------------------------------------------------------------------
  chi0(G,G') at the    1 th omega   0.0000   0.0000 [eV]
       1       2       3       4       5       6       7       8       9
    1  -8.560  -1.641   2.472  -0.884  -1.890  -0.882  -1.892  -0.882  -1.891
        0.000  -1.641  -2.472  -0.884   1.890  -0.882   1.892  -0.882   1.891

    2  -1.641 -13.342   0.000  -0.589  -0.000  -0.532  -0.000  -0.549  -0.000
        1.641  -0.000  -4.413  -0.000   0.041   0.000   0.054  -0.000   0.042

  chi0(G,G') at the    2 th omega   6.8028   0.0000 [eV]
       1       2       3       4       5       6       7       8       9
    1  -9.526  -5.201   4.360   3.930  -8.342   3.932  -8.344   3.932  -8.343
      -21.579  -8.062   1.370  -4.107  -2.897  -4.104  -2.895  -4.105  -2.896

    2  -8.062 -21.127   4.102  -1.462   0.298  -1.399   0.298  -1.417   0.298
        5.201  -6.805  -9.222  -0.254   1.550  -0.253   1.564  -0.253   1.551

  chi0(G,G') at the    3 th omega  13.6057   0.0000 [eV]
       1       2       3       4       5       6       7       8       9
    1   2.432   1.968   1.292  -1.861  -0.791  -1.858  -0.794  -1.859  -0.792
       -1.258  -1.138   2.868   1.405  -1.912   1.408  -1.909   1.407  -1.910

    2  -1.138  -9.510  14.339   0.977  -3.143   1.067  -3.143   1.040  -3.143
       -1.968 -13.484  -0.120   1.866  -1.679   1.866  -1.655   1.866  -1.674

  chi0(G,G') at the    4 th omega  20.4085   0.0000 [eV]
       1       2       3       4       5       6       7       8       9
    1   1.053   0.661  -0.462  -0.160   0.356  -0.163   0.354  -0.162   0.355
       -0.126   0.077   0.245   0.238  -0.613   0.239  -0.611   0.239  -0.612

    2   0.077   2.722  -1.559   1.324  -0.104   1.776  -0.103   1.623  -0.103
       -0.661 -12.683   0.989  -1.095   2.235  -1.080   2.060  -1.085   2.106

  chi0(G,G') at the    5 th omega  27.2114   0.0000 [eV]
       1       2       3       4       5       6       7       8       9
    1   0.561   0.366  -0.195  -0.031   0.158  -0.038   0.161  -0.036   0.163
       -0.012   0.335   0.200  -0.030  -0.164  -0.037  -0.167  -0.035  -0.167

    2   0.335   4.495  -0.054  -0.273  -0.268  -0.391  -0.265  -0.362  -0.243
       -0.366  -1.354   0.494  -0.142   1.460  -0.138   1.407  -0.138   1.356

  chi0(G,G') at the    6 th omega   0.0000   4.0999 [eV]
       1       2       3       4       5       6       7       8       9
    1  -5.661  -1.454   1.745  -0.542  -1.280  -0.540  -1.282  -0.540  -1.281
       -0.000  -1.454  -1.745  -0.542   1.280  -0.540   1.282  -0.540   1.281

    2  -1.454 -11.122   0.000  -0.374  -0.000  -0.319   0.000  -0.335   0.000
        1.454   0.000  -3.396  -0.000   0.088   0.000   0.100  -0.000   0.089

  chi0(G,G') at the    7 th omega   0.0000  11.2383 [eV]
       1       2       3       4       5       6       7       8       9
    1  -2.005  -0.726   0.679  -0.118  -0.518  -0.117  -0.520  -0.117  -0.519
       -0.000  -0.726  -0.679  -0.118   0.518  -0.117   0.520  -0.117   0.519

    2  -0.726  -6.725   0.000  -0.089  -0.000  -0.043   0.000  -0.056   0.000
        0.726   0.000  -1.648  -0.000  -0.003   0.000   0.007  -0.000  -0.003

  chi0(G,G') at the    8 th omega   0.0000  23.6669 [eV]
       1       2       3       4       5       6       7       8       9
    1  -0.588  -0.262   0.212  -0.015  -0.167  -0.014  -0.167  -0.015  -0.167
       -0.000  -0.262  -0.212  -0.015   0.167  -0.014   0.167  -0.015   0.167

    2  -0.262  -3.056  -0.000  -0.020  -0.000   0.007   0.000  -0.000   0.000
        0.262   0.000  -0.572  -0.000  -0.032   0.000  -0.027  -0.000  -0.033

  chi0(G,G') at the    9 th omega   0.0000  45.3064 [eV]
       1       2       3       4       5       6       7       8       9
    1  -0.173  -0.085   0.064  -0.002  -0.051  -0.001  -0.051  -0.002  -0.051
       -0.000  -0.085  -0.064  -0.002   0.051  -0.001   0.051  -0.002   0.051

    2  -0.085  -1.122  -0.000  -0.008  -0.000   0.004   0.000   0.001   0.000
        0.085   0.000  -0.174  -0.000  -0.016   0.000  -0.014  -0.000  -0.017

  Average fulfillment of the sum rule on Im[epsilon] for q-point    2 :     74.03  [%]


--------------------------------------------------------------------------------
  q-point number  3        q = ( 0.500000, 0.000000, 0.000000) [r.l.u.]
--------------------------------------------------------------------------------
  chi0(G,G') at the    1 th omega   0.0000   0.0000 [eV]
       1       2       3       4       5       6       7       8       9
    1 -14.512  -2.036   2.999  -2.084  -2.561  -2.077  -2.564  -2.079  -2.562
       -0.000  -2.036  -2.999  -2.084   2.561  -2.077   2.564  -2.079   2.562

    2  -2.036 -10.584  -0.000   0.084  -0.000   0.138  -0.000   0.121  -0.000
        2.036  -0.000  -3.970   0.000   0.270   0.000   0.284  -0.000   0.273

  chi0(G,G') at the    2 th omega   6.8028   0.0000 [eV]
       1       2       3       4       5       6       7       8       9
    1 -17.389  -0.418   5.268  -0.262  -5.497  -0.254  -5.500  -0.257  -5.498
      -11.978  -3.297   1.800  -2.667   1.926  -2.659   1.929  -2.662   1.927

    2  -3.297  -9.589   3.559   0.662   0.220   0.722   0.220   0.703   0.220
        0.418  -3.879  -2.629  -1.576   0.142  -1.576   0.158  -1.576   0.145

  chi0(G,G') at the    3 th omega  13.6057   0.0000 [eV]
       1       2       3       4       5       6       7       8       9
    1   6.542   1.017  -0.840   3.475  -1.664   3.486  -1.669   3.483  -1.666
      -10.581  -1.190   2.299   2.361  -3.410   2.373  -3.405   2.369  -3.407

    2  -1.190  -8.044   5.259  -0.149   3.101  -0.062   3.101  -0.090   3.101
       -1.017 -11.787   3.962  -1.434  -3.187  -1.433  -3.160  -1.433  -3.178

  chi0(G,G') at the    4 th omega  20.4085   0.0000 [eV]
       1       2       3       4       5       6       7       8       9
    1   5.727   2.174  -0.788  -0.021   0.445   0.025   0.484   0.009   0.471
       -0.981   0.291   0.559   0.177  -1.246   0.248  -1.300   0.222  -1.281

    2   0.291   1.798  -0.228   0.052   1.073   0.698   1.077   0.467   1.076
       -2.174  -8.902   0.999  -2.014   1.668  -2.023   1.539  -2.020   1.571

  chi0(G,G') at the    5 th omega  27.2114   0.0000 [eV]
       1       2       3       4       5       6       7       8       9
    1   2.389   0.778  -0.314  -0.002   0.636   0.032   0.544   0.018   0.577
       -0.139   0.358   0.257   0.352  -0.494   0.314  -0.635   0.327  -0.581

    2   0.358  -1.005  -0.095   0.208   0.516   0.116   0.108   0.136   0.261
       -0.778  -5.612   0.474   1.048   0.270   0.946   0.165   0.985   0.218

  chi0(G,G') at the    6 th omega   0.0000   4.0999 [eV]
       1       2       3       4       5       6       7       8       9
    1 -11.446  -1.856   2.201  -1.638  -1.965  -1.632  -1.968  -1.634  -1.966
       -0.000  -1.856  -2.201  -1.638   1.965  -1.632   1.968  -1.634   1.966

    2  -1.856  -8.649  -0.000  -0.026  -0.000   0.026  -0.000   0.009  -0.000
        1.856   0.000  -2.910  -0.000   0.138  -0.000   0.152  -0.000   0.141

  chi0(G,G') at the    7 th omega   0.0000  11.2383 [eV]
       1       2       3       4       5       6       7       8       9
    1  -5.642  -1.110   0.931  -0.715  -1.063  -0.710  -1.065  -0.712  -1.063
       -0.000  -1.110  -0.931  -0.715   1.063  -0.710   1.065  -0.712   1.063

    2  -1.110  -5.208  -0.000  -0.043  -0.000  -0.000   0.000  -0.013  -0.000
        1.110   0.000  -1.312  -0.000   0.032  -0.000   0.043  -0.000   0.033

  chi0(G,G') at the    8 th omega   0.0000  23.6669 [eV]
       1       2       3       4       5       6       7       8       9
    1  -2.011  -0.456   0.293  -0.221  -0.408  -0.218  -0.409  -0.219  -0.409
       -0.000  -0.456  -0.293  -0.221   0.408  -0.218   0.409  -0.219   0.409

    2  -0.456  -2.387  -0.000  -0.021  -0.000   0.004   0.000  -0.003  -0.000
        0.456   0.000  -0.427  -0.000  -0.009  -0.000  -0.002  -0.000  -0.008

  chi0(G,G') at the    9 th omega   0.0000  45.3064 [eV]
       1       2       3       4       5       6       7       8       9
    1  -0.637  -0.155   0.088  -0.064  -0.134  -0.063  -0.134  -0.064  -0.134
       -0.000  -0.155  -0.088  -0.064   0.134  -0.063   0.134  -0.064   0.134

    2  -0.155  -0.884  -0.000  -0.008  -0.000   0.002   0.000  -0.001  -0.000
        0.155   0.000  -0.128  -0.000  -0.007  -0.000  -0.005  -0.000  -0.007

  Average fulfillment of the sum rule on Im[epsilon] for q-point    3 :     61.82  [%]


--------------------------------------------------------------------------------
  q-point number  4        q = ( 0.250000, 0.250000, 0.000000) [r.l.u.]
--------------------------------------------------------------------------------
  chi0(G,G') at the    1 th omega   0.0000   0.0000 [eV]
       1       2       3       4       5       6       7       8       9
    1 -10.943  -2.276  -0.135  -0.135  -2.276  -0.135  -2.276  -2.276  -0.135
        0.000  -2.276   0.135  -0.135   2.276  -0.135   2.276  -2.276   0.135

    2  -2.276 -14.302   0.000  -0.536  -0.000  -0.490  -0.000  -0.581   0.000
        2.276  -0.000  -3.589  -0.000   0.239   0.000   0.249  -0.000  -0.391

  chi0(G,G') at the    2 th omega   6.8028   0.0000 [eV]
       1       2       3       4       5       6       7       8       9
    1  10.794   4.973  -1.172   3.399  -4.575   3.399  -4.575   4.973  -1.172
      -18.362  -4.575  -3.399  -1.172  -4.973  -1.172  -4.973  -4.575  -3.399

    2  -4.575 -13.065   0.083  -0.401  -0.886  -0.351  -0.886   1.403  -0.573
       -4.973  -7.619  -3.569  -2.033   0.026  -2.032   0.037  -3.816   0.428

  chi0(G,G') at the    3 th omega  13.6057   0.0000 [eV]
       1       2       3       4       5       6       7       8       9
    1   1.839   2.607   2.228  -0.572  -3.302  -0.572  -3.302   2.607   2.228
       -3.432  -3.302   0.572   2.228  -2.607   2.228  -2.607  -3.302   0.572

    2  -3.302 -10.151   6.907   1.194  -2.622   1.272  -2.622  -0.441   2.741
       -2.607 -26.389   3.125   0.322   0.082   0.323   0.096  -1.731  -4.420

  chi0(G,G') at the    4 th omega  20.4085   0.0000 [eV]
       1       2       3       4       5       6       7       8       9
    1   1.625   1.066   0.032  -1.007   0.659  -1.007   0.659   1.066   0.032
       -0.209   0.659   1.007   0.032  -1.066   0.032  -1.066   0.659   1.007

    2   0.659   7.148   0.247  -0.898   1.096  -0.772   0.959   2.406   0.817
       -1.066 -15.548   2.990  -0.369   1.674  -0.373   1.254   0.488   3.012

  chi0(G,G') at the    5 th omega  27.2114   0.0000 [eV]
       1       2       3       4       5       6       7       8       9
    1   0.750   0.283  -0.084  -0.112   0.317  -0.111   0.315   0.277  -0.084
       -0.033   0.315   0.111  -0.084  -0.277  -0.084  -0.283   0.316   0.112

    2   0.315   5.852  -0.051   0.451  -0.238   0.326  -0.265  -0.361   0.365
       -0.283  -4.124   0.839  -0.387   1.418  -0.184   1.347   1.360  -0.106

  chi0(G,G') at the    6 th omega   0.0000   4.0999 [eV]
       1       2       3       4       5       6       7       8       9
    1  -7.332  -1.663  -0.045  -0.045  -1.663  -0.045  -1.663  -1.663  -0.045
        0.000  -1.663   0.045  -0.045   1.663  -0.045   1.663  -1.663   0.045

    2  -1.663 -11.733   0.000  -0.338  -0.000  -0.294   0.000  -0.298   0.000
        1.663  -0.000  -2.763  -0.000   0.178   0.000   0.187  -0.000  -0.168

  chi0(G,G') at the    7 th omega   0.0000  11.2383 [eV]
       1       2       3       4       5       6       7       8       9
    1  -2.597  -0.717   0.076   0.076  -0.717   0.076  -0.717  -0.717   0.076
        0.000  -0.717  -0.076   0.076   0.717   0.076   0.717  -0.717  -0.076

    2  -0.717  -7.027  -0.000  -0.090  -0.000  -0.055   0.000  -0.056   0.000
        0.717   0.000  -1.489  -0.000   0.022   0.000   0.030  -0.000  -0.118

  chi0(G,G') at the    8 th omega   0.0000  23.6669 [eV]
       1       2       3       4       5       6       7       8       9
    1  -0.772  -0.246   0.052   0.052  -0.246   0.052  -0.246  -0.246   0.052
        0.000  -0.246  -0.052   0.052   0.246   0.052   0.246  -0.246  -0.052

    2  -0.246  -3.177  -0.000  -0.024  -0.000  -0.003   0.000  -0.005   0.000
        0.246   0.000  -0.560  -0.000  -0.020   0.000  -0.015  -0.000  -0.075

  chi0(G,G') at the    9 th omega   0.0000  45.3064 [eV]
       1       2       3       4       5       6       7       8       9
    1  -0.229  -0.078   0.020   0.020  -0.078   0.020  -0.078  -0.078   0.020
        0.000  -0.078  -0.020   0.020   0.078   0.020   0.078  -0.078  -0.020

    2  -0.078  -1.160   0.000  -0.009  -0.000  -0.001   0.000  -0.001   0.000
        0.078   0.000  -0.177   0.000  -0.012   0.000  -0.010  -0.000  -0.029

  Average fulfillment of the sum rule on Im[epsilon] for q-point    4 :     70.99  [%]


--------------------------------------------------------------------------------
  q-point number  5        q = ( 0.500000, 0.250000, 0.000000) [r.l.u.]
--------------------------------------------------------------------------------
  chi0(G,G') at the    1 th omega   0.0000   0.0000 [eV]
       1       2       3       4       5       6       7       8       9
    1 -16.426  -2.476   0.520  -1.643  -2.855  -1.640  -2.855  -2.614  -1.758
       -0.000  -2.476  -0.520  -1.643   2.855  -1.640   2.855  -2.614   1.758

    2  -2.476 -11.447  -0.000  -0.205  -0.000  -0.163  -0.000  -0.140  -0.000
        2.476   0.000  -3.272   0.000   0.401   0.000   0.410  -0.000   0.001

  chi0(G,G') at the    2 th omega   6.8028   0.0000 [eV]
       1       2       3       4       5       6       7       8       9
    1 -23.560  -3.142   3.971   0.164  -6.154   0.167  -6.153  -3.319  -4.206
      -13.045  -7.543  -4.299  -6.961   1.994  -6.958   1.993  -5.120   3.962

    2  -7.543 -16.359   3.950  -3.008  -0.358  -2.962  -0.358   0.433   0.684
        3.142  -7.582  -8.990  -1.016  -0.264  -1.015  -0.254   0.907   1.333

  chi0(G,G') at the    3 th omega  13.6057   0.0000 [eV]
       1       2       3       4       5       6       7       8       9
    1  10.162   7.937   1.502  -0.291  -3.717  -0.286  -3.717   5.678  -2.433
      -18.785  -6.398   2.941   2.682  -6.915   2.687  -6.916  -1.512  -8.174

    2  -6.398  -3.580   6.992  -0.658  -0.825  -0.587  -0.825  -0.906  -4.490
       -7.937 -22.216   3.378   4.753  -0.095   4.754  -0.080   2.133  -1.865

  chi0(G,G') at the    4 th omega  20.4085   0.0000 [eV]
       1       2       3       4       5       6       7       8       9
    1   4.810   2.430  -1.292  -1.056   0.507  -1.041   0.522   1.528   0.893
       -1.232  -0.027   0.570   0.077  -2.415   0.094  -2.430   1.456  -0.800

    2  -0.027   3.167  -1.546  -0.150  -2.645  -0.111  -2.645   0.744   1.137
       -2.430 -13.550   2.246  -0.345  -0.545  -0.323  -0.634  -1.018   0.932

  chi0(G,G') at the    5 th omega  27.2114   0.0000 [eV]
       1       2       3       4       5       6       7       8       9
    1   2.207   0.767  -0.264  -0.008   0.475  -0.012   0.486   0.410   0.288
       -0.055   0.611   0.224  -0.053  -0.550  -0.056  -0.559   0.452  -0.143

    2   0.611   6.008  -0.095  -0.083  -0.261  -0.178  -0.268  -0.665   0.186
       -0.767  -1.516   0.613  -0.119   1.575  -0.110   1.512   0.236   0.173

  chi0(G,G') at the    6 th omega   0.0000   4.0999 [eV]
       1       2       3       4       5       6       7       8       9
    1 -12.086  -2.028   0.557  -1.186  -2.137  -1.183  -2.136  -2.041  -1.503
       -0.000  -2.028  -0.557  -1.186   2.137  -1.183   2.136  -2.041   1.503

    2  -2.028  -9.352  -0.000  -0.231  -0.000  -0.191  -0.000   0.014  -0.000
        2.028   0.000  -2.490  -0.000   0.212  -0.000   0.221  -0.000   0.089

  chi0(G,G') at the    7 th omega   0.0000  11.2383 [eV]
       1       2       3       4       5       6       7       8       9
    1  -5.438  -1.103   0.413  -0.408  -1.083  -0.406  -1.083  -0.997  -0.780
       -0.000  -1.103  -0.413  -0.408   1.083  -0.406   1.083  -0.997   0.780

    2  -1.103  -5.622  -0.000  -0.094  -0.000  -0.061   0.000   0.012  -0.000
        1.103   0.000  -1.260   0.000   0.051  -0.000   0.059  -0.000   0.041

  chi0(G,G') at the    8 th omega   0.0000  23.6669 [eV]
       1       2       3       4       5       6       7       8       9
    1  -1.875  -0.439   0.173  -0.095  -0.415  -0.094  -0.415  -0.360  -0.265
       -0.000  -0.439  -0.173  -0.095   0.415  -0.094   0.415  -0.360   0.265

    2  -0.439  -2.573   0.000  -0.030  -0.000  -0.010   0.000   0.003   0.000
        0.439   0.000  -0.448   0.000  -0.000  -0.000   0.005  -0.000  -0.007

  chi0(G,G') at the    9 th omega   0.0000  45.3064 [eV]
       1       2       3       4       5       6       7       8       9
    1  -0.588  -0.148   0.057  -0.022  -0.137  -0.022  -0.137  -0.115  -0.080
       -0.000  -0.148  -0.057  -0.022   0.137  -0.022   0.137  -0.115   0.080

    2  -0.148  -0.952   0.000  -0.010  -0.000  -0.002   0.000   0.001   0.000
        0.148   0.000  -0.139   0.000  -0.005  -0.000  -0.002  -0.000  -0.007

  Average fulfillment of the sum rule on Im[epsilon] for q-point    5 :     60.79  [%]


--------------------------------------------------------------------------------
  q-point number  6        q = (-0.250000, 0.250000, 0.000000) [r.l.u.]
--------------------------------------------------------------------------------
  chi0(G,G') at the    1 th omega   0.0000   0.0000 [eV]
       1       2       3       4       5       6       7       8       9
    1 -14.827   0.369  -2.421  -2.385  -2.389  -2.389  -2.385  -2.421   0.369
       -0.000   0.369   2.421  -2.385   2.389  -2.389   2.385  -2.421  -0.369

    2   0.369 -17.978   0.000   0.689   0.000   0.711  -0.000  -0.190  -0.000
       -0.369   0.000  -3.408  -0.000  -0.200   0.000  -0.192  -0.000  -1.731

  chi0(G,G') at the    2 th omega   6.8028   0.0000 [eV]
       1       2       3       4       5       6       7       8       9
    1  -5.253   5.518  -5.411   2.135  -2.989   2.129  -2.984   4.321   2.176
      -22.680   2.176  -4.321  -2.984  -2.129  -2.990  -2.134  -5.411  -5.518

    2   2.176 -16.952   1.536   0.380  -0.638   0.405  -0.638  -1.373   2.355
       -5.518 -10.152  -4.907   0.773  -1.292   0.773  -1.282  -1.936  -1.712

  chi0(G,G') at the    3 th omega  13.6057   0.0000 [eV]
       1       2       3       4       5       6       7       8       9
    1  10.962  -1.950  -0.801   3.803   2.121   3.795   2.129   2.658  -0.144
       -4.367  -0.144  -2.658   2.129  -3.795   2.121  -3.803  -0.801   1.950

    2  -0.144  -8.981   4.895  -1.829   3.179  -1.788   3.179  -2.142  -1.832
        1.950 -27.649   1.852  -0.865  -2.066  -0.865  -2.049  -2.154  -1.473

  chi0(G,G') at the    4 th omega  20.4085   0.0000 [eV]
       1       2       3       4       5       6       7       8       9
    1   3.420  -0.671   0.481   0.884   0.119   0.960   0.097   2.233  -0.739
       -0.447  -0.739  -2.233   0.098  -0.960   0.119  -0.884   0.481   0.671

    2  -0.739  14.236   0.435  -0.617  -2.000  -1.208  -2.021  -0.992   0.941
        0.671 -11.549   2.630   0.103   1.404   0.354   1.279   0.400   0.468

  chi0(G,G') at the    5 th omega  27.2114   0.0000 [eV]
       1       2       3       4       5       6       7       8       9
    1   1.563  -0.156   0.504   0.169   0.282   0.252   0.324   0.570  -0.194
       -0.090  -0.194  -0.570   0.327  -0.252   0.282  -0.168   0.504   0.155

    2  -0.194   4.867   0.339   0.162  -0.070   0.124  -0.077   0.005  -0.139
        0.156  -0.415   0.521  -0.608  -0.026  -0.625  -0.024  -0.026   0.033

  chi0(G,G') at the    6 th omega   0.0000   4.0999 [eV]
       1       2       3       4       5       6       7       8       9
    1 -10.517   0.437  -1.962  -1.728  -1.732  -1.733  -1.728  -1.962   0.437
        0.000   0.437   1.962  -1.728   1.732  -1.733   1.728  -1.962  -0.437

    2   0.437 -14.181   0.000   0.288   0.000   0.309  -0.000  -0.271  -0.000
       -0.437  -0.000  -2.638  -0.000  -0.215   0.000  -0.207  -0.000  -1.243

  chi0(G,G') at the    7 th omega   0.0000  11.2383 [eV]
       1       2       3       4       5       6       7       8       9
    1  -4.399   0.340  -1.013  -0.749  -0.753  -0.753  -0.749  -1.013   0.340
        0.000   0.340   1.013  -0.749   0.753  -0.753   0.749  -1.013  -0.340

    2   0.340  -7.631   0.000   0.045   0.000   0.062  -0.000  -0.062   0.000
       -0.340  -0.000  -1.363  -0.000  -0.181   0.000  -0.175  -0.000  -0.337

  chi0(G,G') at the    8 th omega   0.0000  23.6669 [eV]
       1       2       3       4       5       6       7       8       9
    1  -1.443   0.147  -0.387  -0.245  -0.248  -0.248  -0.246  -0.387   0.147
        0.000   0.147   0.387  -0.245   0.248  -0.248   0.246  -0.387  -0.147

    2   0.147  -3.052   0.000  -0.017   0.000  -0.008  -0.000  -0.009   0.000
       -0.147  -0.000  -0.497  -0.000  -0.079   0.000  -0.076  -0.000  -0.063

  chi0(G,G') at the    9 th omega   0.0000  45.3064 [eV]
       1       2       3       4       5       6       7       8       9
    1  -0.443   0.049  -0.128  -0.075  -0.075  -0.075  -0.075  -0.128   0.049
        0.000   0.049   0.128  -0.075   0.075  -0.075   0.075  -0.128  -0.049

    2   0.049  -1.028   0.000  -0.013   0.000  -0.009  -0.000  -0.003   0.000
       -0.049  -0.000  -0.156  -0.000  -0.025   0.000  -0.024  -0.000  -0.013

  Average fulfillment of the sum rule on Im[epsilon] for q-point    6 :     63.49  [%]


--------------------------------------------------------------------------------
  q-point number  7        q = ( 0.500000, 0.500000, 0.000000) [r.l.u.]
--------------------------------------------------------------------------------
  chi0(G,G') at the    1 th omega   0.0000   0.0000 [eV]
       1       2       3       4       5       6       7       8       9
    1 -17.630  -2.815  -1.412  -1.412  -2.815  -1.412  -2.815  -2.815  -1.412
        0.000  -2.815   1.412  -1.412   2.815  -1.412   2.815  -2.815   1.412

    2  -2.815 -11.812   0.000  -0.189  -0.000  -0.162  -0.000   0.007   0.000
        2.815   0.000  -2.303   0.000   0.426   0.000   0.441  -0.000  -0.189

  chi0(G,G') at the    2 th omega   6.8028   0.0000 [eV]
       1       2       3       4       5       6       7       8       9
    1  -9.454  -0.661  -5.136   2.394  -2.737   2.394  -2.738  -0.661  -5.136
      -15.397  -2.738  -2.394  -5.136   0.661  -5.136   0.661  -2.738  -2.394

    2  -2.738  -7.471   3.523  -1.454   0.622  -1.425   0.622   0.245   0.420
        0.661 -10.000  -5.345   1.161  -0.249   1.161  -0.233  -0.338   0.395

  chi0(G,G') at the    3 th omega  13.6057   0.0000 [eV]
       1       2       3       4       5       6       7       8       9
    1  15.071   3.778   3.766   6.063   0.783   6.063   0.782   3.778   3.766
       -8.692   0.782  -6.063   3.766  -3.778   3.766  -3.778   0.783  -6.063

    2   0.782  -5.269   3.408  -0.275   2.186  -0.233   2.186   0.027  -0.505
       -3.778 -14.104  -0.274  -0.530  -1.616  -0.530  -1.592   1.387  -3.592

  chi0(G,G') at the    4 th omega  20.4085   0.0000 [eV]
       1       2       3       4       5       6       7       8       9
    1   8.731   2.068   0.997  -0.870  -0.341  -0.870  -0.341   2.068   0.998
       -3.531  -0.341   0.870   0.998  -2.068   0.997  -2.068  -0.341   0.870

    2  -0.341  -2.684  -3.532   1.334  -3.305   1.531  -3.487   2.620  -5.577
       -2.068 -14.690  -0.299  -1.117  -0.097  -1.117  -0.524  -0.850  -1.767

  chi0(G,G') at the    5 th omega  27.2114   0.0000 [eV]
       1       2       3       4       5       6       7       8       9
    1   3.285   0.906   0.012   0.086   0.793   0.088   0.793   0.906   0.011
       -0.123   0.793  -0.087   0.011  -0.906   0.012  -0.906   0.793  -0.086

    2   0.793  -1.106  -0.484   0.113   3.384  -0.091   2.096   1.586  -0.123
       -0.906 -12.868   0.559  -0.480  -0.800   0.531  -1.037   2.348   0.495

  chi0(G,G') at the    6 th omega   0.0000   4.0999 [eV]
       1       2       3       4       5       6       7       8       9
    1 -13.560  -2.134  -1.265  -1.264  -2.134  -1.265  -2.134  -2.134  -1.264
        0.000  -2.134   1.265  -1.264   2.134  -1.265   2.134  -2.134   1.264

    2  -2.134  -9.496  -0.000  -0.272  -0.000  -0.245   0.000   0.168  -0.000
        2.134  -0.000  -1.610  -0.000   0.145   0.000   0.159  -0.000   0.037

  chi0(G,G') at the    7 th omega   0.0000  11.2383 [eV]
       1       2       3       4       5       6       7       8       9
    1  -6.687  -1.184  -0.555  -0.555  -1.184  -0.555  -1.184  -1.184  -0.555
        0.000  -1.184   0.555  -0.555   1.184  -0.555   1.184  -1.184   0.555

    2  -1.184  -5.735  -0.000  -0.150  -0.000  -0.128   0.000   0.067  -0.000
        1.184   0.000  -0.874   0.000   0.050  -0.000   0.061  -0.000  -0.001

  chi0(G,G') at the    8 th omega   0.0000  23.6669 [eV]
       1       2       3       4       5       6       7       8       9
    1  -2.449  -0.480  -0.155  -0.155  -0.480  -0.155  -0.480  -0.480  -0.155
        0.000  -0.480   0.155  -0.155   0.480  -0.155   0.480  -0.480   0.155

    2  -0.480  -2.629   0.000  -0.052  -0.000  -0.038   0.000   0.015  -0.000
        0.480   0.000  -0.346   0.000   0.008  -0.000   0.015  -0.000  -0.021

  chi0(G,G') at the    9 th omega   0.0000  45.3064 [eV]
       1       2       3       4       5       6       7       8       9
    1  -0.790  -0.163  -0.041  -0.041  -0.163  -0.041  -0.163  -0.163  -0.041
        0.000  -0.163   0.041  -0.041   0.163  -0.041   0.163  -0.163   0.041

    2  -0.163  -0.972   0.000  -0.016  -0.000  -0.010   0.000   0.003  -0.000
        0.163   0.000  -0.115   0.000  -0.001  -0.000   0.002  -0.000  -0.010

  Average fulfillment of the sum rule on Im[epsilon] for q-point    7 :     58.71  [%]


--------------------------------------------------------------------------------
  q-point number  8        q = (-0.250000, 0.500000, 0.250000) [r.l.u.]
--------------------------------------------------------------------------------
  chi0(G,G') at the    1 th omega   0.0000   0.0000 [eV]
       1       2       3       4       5       6       7       8       9
    1 -18.874  -1.477  -2.620  -2.879  -2.538  -2.539  -2.879  -2.620  -1.477
[...]
                                        Bottom of conduction at :   0.5000  0.5000  0.0000
 SIGMA fundamental parameters:
 CONTOUR DEFORMATION
 number of plane-waves for SigmaX                   89
 number of plane-waves for SigmaC and W             51
 number of plane-waves for wavefunctions           181
 number of bands                                    30
 number of independent spin polarizations            1
 number of spinorial components                      1
 number of k-points in IBZ                           8
 number of q-points in IBZ                           8
 number of symmetry operations                      48
 number of k-points in BZ                           64
 number of q-points in BZ                           64
 number of frequencies for dSigma/dE                 9
 frequency step for dSigma/dE [eV]                0.25
 number of omega for Sigma on real axis              0
 max omega for Sigma on real axis  [eV]           0.00
 zcut for avoiding poles [eV]                     0.10

 EPSILON^-1 parameters (SCR file):
 dimension of the eps^-1 matrix on file             51
 dimension of the eps^-1 matrix used                51
 number of plane-waves for wavefunctions           181
 number of bands                                    16
 number of q-points in IBZ                           8
 number of frequencies                               9
 number of real frequencies                          5
 number of imag frequencies                          4

 matrix elements of self-energy operator (all in [eV])

 Perturbative Calculation

 k =    0.000   0.000   0.000
 Band     E0 <VxcLDA>   SigX SigC(E0)      Z dSigC/dE  Sig(E)    E-E0       E
    4   5.850 -11.213 -12.500   1.483   0.786  -0.272 -11.059   0.154   6.003
    4   0.000   0.000   0.000   0.000   0.000   0.000   0.000   0.000   0.000
    5   8.371 -10.021  -5.651  -3.416   0.789  -0.268  -9.269   0.752   9.123
    5   0.000   0.000   0.000  -0.006   0.000   0.000  -0.005  -0.005  -0.005

 E^0_gap          2.521
 E^GW_gap         3.120
 DeltaE^GW_gap    0.598


 k =    0.500   0.500   0.000
 Band     E0 <VxcLDA>   SigX SigC(E0)      Z dSigC/dE  Sig(E)    E-E0       E
    4   2.939 -10.534 -12.918   2.417   0.782  -0.279 -10.508   0.026   2.965
    4   0.000   0.000   0.000   0.034   0.000   0.000   0.027   0.027   0.027
    5   6.458  -9.062  -5.077  -3.135   0.802  -0.247  -8.380   0.682   7.140
    5   0.000   0.000   0.000  -0.000   0.000   0.000  -0.000  -0.000  -0.000

 E^0_gap          3.519
 E^GW_gap         4.175
 DeltaE^GW_gap    0.656


== END DATASET(S) ==============================================================
================================================================================
  
 -outvars: echo values of variables after computation  --------
            acell      1.0263000000E+01  1.0263000000E+01  1.0263000000E+01 Bohr
              amu      2.80855000E+01
             awtr1          1
             awtr2          0
             awtr3          1
             awtr4          1
             bdgw3          4       5       4       5
             bdgw4          4       5       4       5
             ecut1     6.00000000E+00 Hartree
             ecut2     5.99695875E+00 Hartree
             ecut3     5.99695875E+00 Hartree
             ecut4     5.99695875E+00 Hartree
          ecuteps1     0.00000000E+00 Hartree
          ecuteps2     2.06145457E+00 Hartree
          ecuteps3     0.00000000E+00 Hartree
          ecuteps4     0.00000000E+00 Hartree
         ecutsigx1     0.00000000E+00 Hartree
         ecutsigx2     0.00000000E+00 Hartree
         ecutsigx3     3.56069426E+00 Hartree
         ecutsigx4     3.56069426E+00 Hartree
          ecutwfn1     6.00000000E+00 Hartree
          ecutwfn2     5.99695875E+00 Hartree
          ecutwfn3     5.99695875E+00 Hartree
          ecutwfn4     5.99695875E+00 Hartree
           enunit           2
           etotal1    -8.8581701421E+00
           etotal2     0.0000000000E+00
           etotal3     0.0000000000E+00
           etotal4     0.0000000000E+00
            fcart1     1.7935062316E-31 -1.7935062316E-31  1.7935062316E-31
                      -1.7935062316E-31  1.7935062316E-31 -1.7935062316E-31
            fcart2     0.0000000000E+00  0.0000000000E+00  0.0000000000E+00
                       0.0000000000E+00  0.0000000000E+00  0.0000000000E+00
            fcart3     0.0000000000E+00  0.0000000000E+00  0.0000000000E+00
                       0.0000000000E+00  0.0000000000E+00  0.0000000000E+00
            fcart4     0.0000000000E+00  0.0000000000E+00  0.0000000000E+00
                       0.0000000000E+00  0.0000000000E+00  0.0000000000E+00
-          fftalg         112
        freqremax1     0.00000000E+00 Hartree
        freqremax2     1.00000000E+00 Hartree
        freqremax3     0.00000000E+00 Hartree
        freqremax4     0.00000000E+00 Hartree
           getkss1          0
           getkss2          1
           getkss3          1
           getkss4          1
           getscr1          0
           getscr2          0
           getscr3          2
           getscr4          2
        gwcalctyp1          0
        gwcalctyp2          2
        gwcalctyp3          0
        gwcalctyp4          2
         icutcoul1          6
         icutcoul2          6
         icutcoul3          3
         icutcoul4          3
             iscf1          5
             iscf2          7
             iscf3          7
             iscf4          7
           istwfk        1    0    1    0    0    0    1    0
           jdtset        1    2    3    4
              kpt      0.00000000E+00  0.00000000E+00  0.00000000E+00
                       2.50000000E-01  0.00000000E+00  0.00000000E+00
                       5.00000000E-01  0.00000000E+00  0.00000000E+00
                       2.50000000E-01  2.50000000E-01  0.00000000E+00
                       5.00000000E-01  2.50000000E-01  0.00000000E+00
                      -2.50000000E-01  2.50000000E-01  0.00000000E+00
                       5.00000000E-01  5.00000000E-01  0.00000000E+00
                      -2.50000000E-01  5.00000000E-01  2.50000000E-01
            kptgw3     0.00000000E+00  0.00000000E+00  0.00000000E+00
                       5.00000000E-01  5.00000000E-01  0.00000000E+00
            kptgw4     0.00000000E+00  0.00000000E+00  0.00000000E+00
                       5.00000000E-01  5.00000000E-01  0.00000000E+00
         kptrlatt        4    0    0      0    4    0      0    0    4
          kptrlen      2.90281476E+01
          kssform1          3
          kssform2          1
          kssform3          1
          kssform4          1
P           mkmem           8
            natom           2
            nband1         35
            nband2         16
            nband3         30
            nband4         30
         nbandkss1         30
         nbandkss2          0
         nbandkss3          0
         nbandkss4          0
           nbdbuf1          5
           nbdbuf2          0
           nbdbuf3          0
           nbdbuf4          0
           ndtset           4
          nfreqim1         -1
          nfreqim2          4
          nfreqim3         -1
          nfreqim4         -1
          nfreqre1         -1
          nfreqre2          5
          nfreqre3         -1
          nfreqre4         -1
            ngfft1         18      18      18
            ngfft2         16      16      16
            ngfft3         16      16      16
            ngfft4         16      16      16
             nkpt           8
           nkptgw1          0
           nkptgw2          0
           nkptgw3          2
           nkptgw4          2
           npweps1          0
           npweps2         51
           npweps3          0
           npweps4          0
          npwsigx1          0
          npwsigx2          0
          npwsigx3         89
          npwsigx4         89
           npwwfn1          0
           npwwfn2        181
           npwwfn3        181
           npwwfn4        181
           nsheps1          0
           nsheps2          5
           nsheps3          0
           nsheps4          0
          nshsigx1          0
          nshsigx2          0
          nshsigx3          8
          nshsigx4          8
            nstep         100
             nsym          48
           ntypat           1
              occ1     2.000000  2.000000  2.000000  2.000000  0.000000  0.000000
                       0.000000  0.000000  0.000000  0.000000  0.000000  0.000000
                       0.000000  0.000000  0.000000  0.000000  0.000000  0.000000
                       0.000000  0.000000  0.000000  0.000000  0.000000  0.000000
                       0.000000  0.000000  0.000000  0.000000  0.000000  0.000000
                       0.000000  0.000000  0.000000  0.000000  0.000000
              occ2     2.000000  2.000000  2.000000  2.000000  0.000000  0.000000
                       0.000000  0.000000  0.000000  0.000000  0.000000  0.000000
                       0.000000  0.000000  0.000000  0.000000
              occ3     2.000000  2.000000  2.000000  2.000000  0.000000  0.000000
                       0.000000  0.000000  0.000000  0.000000  0.000000  0.000000
                       0.000000  0.000000  0.000000  0.000000  0.000000  0.000000
                       0.000000  0.000000  0.000000  0.000000  0.000000  0.000000
                       0.000000  0.000000  0.000000  0.000000  0.000000  0.000000
              occ4     2.000000  2.000000  2.000000  2.000000  0.000000  0.000000
                       0.000000  0.000000  0.000000  0.000000  0.000000  0.000000
                       0.000000  0.000000  0.000000  0.000000  0.000000  0.000000
                       0.000000  0.000000  0.000000  0.000000  0.000000  0.000000
                       0.000000  0.000000  0.000000  0.000000  0.000000  0.000000
        optdriver1          0
        optdriver2          3
        optdriver3          4
        optdriver4          4
            rprim      0.0000000000E+00  5.0000000000E-01  5.0000000000E-01
                       5.0000000000E-01  0.0000000000E+00  5.0000000000E-01
                       5.0000000000E-01  5.0000000000E-01  0.0000000000E+00
          spgroup         227
           strten1     9.9173691899E-05  9.9173691899E-05  9.9173691899E-05
                       0.0000000000E+00  0.0000000000E+00  0.0000000000E+00
           strten2     0.0000000000E+00  0.0000000000E+00  0.0000000000E+00
                       0.0000000000E+00  0.0000000000E+00  0.0000000000E+00
           strten3     0.0000000000E+00  0.0000000000E+00  0.0000000000E+00
                       0.0000000000E+00  0.0000000000E+00  0.0000000000E+00
           strten4     0.0000000000E+00  0.0000000000E+00  0.0000000000E+00
                       0.0000000000E+00  0.0000000000E+00  0.0000000000E+00
           symrel      1  0  0   0  1  0   0  0  1      -1  0  0   0 -1  0   0  0 -1
                       0 -1  1   0 -1  0   1 -1  0       0  1 -1   0  1  0  -1  1  0
                      -1  0  0  -1  0  1  -1  1  0       1  0  0   1  0 -1   1 -1  0
                       0  1 -1   1  0 -1   0  0 -1       0 -1  1  -1  0  1   0  0  1
                      -1  0  0  -1  1  0  -1  0  1       1  0  0   1 -1  0   1  0 -1
                       0 -1  1   1 -1  0   0 -1  0       0  1 -1  -1  1  0   0  1  0
                       1  0  0   0  0  1   0  1  0      -1  0  0   0  0 -1   0 -1  0
                       0  1 -1   0  0 -1   1  0 -1       0 -1  1   0  0  1  -1  0  1
                      -1  0  1  -1  1  0  -1  0  0       1  0 -1   1 -1  0   1  0  0
                       0 -1  0   1 -1  0   0 -1  1       0  1  0  -1  1  0   0  1 -1
                       1  0 -1   0  0 -1   0  1 -1      -1  0  1   0  0  1   0 -1  1
                       0  1  0   0  0  1   1  0  0       0 -1  0   0  0 -1  -1  0  0
                       1  0 -1   0  1 -1   0  0 -1      -1  0  1   0 -1  1   0  0  1
                       0 -1  0   0 -1  1   1 -1  0       0  1  0   0  1 -1  -1  1  0
                      -1  0  1  -1  0  0  -1  1  0       1  0 -1   1  0  0   1 -1  0
                       0  1  0   1  0  0   0  0  1       0 -1  0  -1  0  0   0  0 -1
                       0  0 -1   0  1 -1   1  0 -1       0  0  1   0 -1  1  -1  0  1
                       1 -1  0   0 -1  1   0 -1  0      -1  1  0   0  1 -1   0  1  0
                       0  0  1   1  0  0   0  1  0       0  0 -1  -1  0  0   0 -1  0
                      -1  1  0  -1  0  0  -1  0  1       1 -1  0   1  0  0   1  0 -1
                       0  0  1   0  1  0   1  0  0       0  0 -1   0 -1  0  -1  0  0
                       1 -1  0   0 -1  0   0 -1  1      -1  1  0   0  1  0   0  1 -1
                       0  0 -1   1  0 -1   0  1 -1       0  0  1  -1  0  1   0 -1  1
                      -1  1  0  -1  0  1  -1  0  0       1 -1  0   1  0 -1   1  0  0
            tnons      0.0000000  0.0000000  0.0000000     0.2500000  0.2500000  0.2500000
                       0.0000000  0.0000000  0.0000000     0.2500000  0.2500000  0.2500000
                       0.0000000  0.0000000  0.0000000     0.2500000  0.2500000  0.2500000
                       0.0000000  0.0000000  0.0000000     0.2500000  0.2500000  0.2500000
                       0.0000000  0.0000000  0.0000000     0.2500000  0.2500000  0.2500000
                       0.0000000  0.0000000  0.0000000     0.2500000  0.2500000  0.2500000
                       0.0000000  0.0000000  0.0000000     0.2500000  0.2500000  0.2500000
                       0.0000000  0.0000000  0.0000000     0.2500000  0.2500000  0.2500000
                       0.0000000  0.0000000  0.0000000     0.2500000  0.2500000  0.2500000
                       0.0000000  0.0000000  0.0000000     0.2500000  0.2500000  0.2500000
                       0.0000000  0.0000000  0.0000000     0.2500000  0.2500000  0.2500000
                       0.0000000  0.0000000  0.0000000     0.2500000  0.2500000  0.2500000
                       0.0000000  0.0000000  0.0000000     0.2500000  0.2500000  0.2500000
                       0.0000000  0.0000000  0.0000000     0.2500000  0.2500000  0.2500000
                       0.0000000  0.0000000  0.0000000     0.2500000  0.2500000  0.2500000
                       0.0000000  0.0000000  0.0000000     0.2500000  0.2500000  0.2500000
                       0.0000000  0.0000000  0.0000000     0.2500000  0.2500000  0.2500000
                       0.0000000  0.0000000  0.0000000     0.2500000  0.2500000  0.2500000
                       0.0000000  0.0000000  0.0000000     0.2500000  0.2500000  0.2500000
                       0.0000000  0.0000000  0.0000000     0.2500000  0.2500000  0.2500000
                       0.0000000  0.0000000  0.0000000     0.2500000  0.2500000  0.2500000
                       0.0000000  0.0000000  0.0000000     0.2500000  0.2500000  0.2500000
                       0.0000000  0.0000000  0.0000000     0.2500000  0.2500000  0.2500000
                       0.0000000  0.0000000  0.0000000     0.2500000  0.2500000  0.2500000
           tolwfr1     1.00000000E-10
           tolwfr2     0.00000000E+00
           tolwfr3     0.00000000E+00
           tolwfr4     0.00000000E+00
            typat      1  1
              wtk        0.01563    0.12500    0.06250    0.09375    0.37500    0.18750
                         0.04688    0.09375
           xangst      0.0000000000E+00  0.0000000000E+00  0.0000000000E+00
                       1.3577364229E+00  1.3577364229E+00  1.3577364229E+00
            xcart      0.0000000000E+00  0.0000000000E+00  0.0000000000E+00
                       2.5657500000E+00  2.5657500000E+00  2.5657500000E+00
             xred      0.0000000000E+00  0.0000000000E+00  0.0000000000E+00
                       2.5000000000E-01  2.5000000000E-01  2.5000000000E-01
            znucl       14.00000

================================================================================


- Timing analysis has been suppressed with timopt=0



================================================================================

 Suggested references for the acknowledgment of ABINIT usage.

 The users of ABINIT have little formal obligations with respect to the ABINIT group
 (those specified in the GNU General Public License, http://www.gnu.org/copyleft/gpl.txt).
 However, it is common practice in the scientific literature,
 to acknowledge the efforts of people that have made the research possible.
 In this spirit, please find below suggested citations of work written by ABINIT developers,
 corresponding to implementations inside of ABINIT that you have used in the present run.
 Note also that it will be of great value to readers of publications presenting these results,
 to read papers enabling them to understand the theoretical formalism and details
 of the ABINIT implementation.
 For information on why they are suggested, see also http://www.abinit.org/about/?text=acknowledgments.

 [1] ABINIT : First-principles approach of materials and nanosystem properties.
 X. Gonze, B. Amadon, P.-M. Anglade, J.-M. Beuken, F. Bottin, P. Boulanger, F. Bruneval,
 D. Caliste, R. Caracas, M. Cote, T. Deutsch, L. Genovese, Ph. Ghosez, M. Giantomassi
 S. Goedecker, D.R. Hamann, P. Hermet, F. Jollet, G. Jomard, S. Leroux, M. Mancini, S. Mazevet,
 M.J.T. Oliveira, G. Onida, Y. Pouillon, T. Rangel, G.-M. Rignanese, D. Sangalli, R. Shaltaf,
 M. Torrent, M.J. Verstraete, G. Zerah, J.W. Zwanziger
 Computer Phys. Comm. 180, 2582-2615 (2009).
 Comment : the third generic paper describing the ABINIT project.
 Note that a version of this paper, that is not formatted for Computer Phys. Comm. 
 is available at http://www.abinit.org/about/ABINIT_CPC_v10.pdf .
 The licence allows the authors to put it on the Web.

 [2] A brief introduction to the ABINIT software package.
 X. Gonze, G.-M. Rignanese, M. Verstraete, J.-M. Beuken, Y. Pouillon, R. Caracas, F. Jollet,
 M. Torrent, G. Zerah, M. Mikami, Ph. Ghosez, M. Veithen, J.-Y. Raty, V. Olevano, F. Bruneval,
 L. Reining, R. Godby, G. Onida, D.R. Hamann, and D.C. Allan.
 Z. Kristallogr. 220, 558-562 (2005).
 Comment : the second generic paper describing the ABINIT project. Note that this paper
 should be cited especially if you are using the GW part of ABINIT, as several authors
 of this part are not in the list of authors of the first or third paper.
 The .pdf of the latter paper is available at http://www.abinit.org/about/zfk_0505-06_558-562.pdf.
 Note that it should not redistributed (Copyright by Oldenburg Wissenshaftverlag,
 the licence allows the authors to put it on the Web).


 And optionally :

 [3] First-principles computation of material properties : the ABINIT software project. 
 X. Gonze, J.-M. Beuken, R. Caracas, F. Detraux, M. Fuchs, G.-M. Rignanese, L. Sindic,
 M. Verstraete, G. Zerah, F. Jollet, M. Torrent, A. Roy, M. Mikami, Ph. Ghosez, J.-Y. Raty, D.C. Allan.
 Computational Materials Science 25, 478-492 (2002). http://dx.doi.org/10.1016/S0927-0256(02)00325-7
 Comment : the original paper describing the ABINIT project.

 [4] Fast radix 2, 3, 4 and 5 kernels for Fast Fourier Transformations
 on computers with overlapping multiply-add instructions.
 S. Goedecker, SIAM J. on Scientific Computing 18, 1605 (1997).

 [5] Towards a potential-based conjugate gradient algorithm for order-N self-consistent
 total energy calculations.
 X. Gonze, Phys. Rev. B 54, 4383 (1996).
 Comment : The potential-based conjugate-gradient algorithm, used when iscf=5, is not published.
 However, many elements of this algorithm have been explained in the paper above.
-
- Proc.   0 individual time (sec): cpu=         27.5  wall=         27.5

================================================================================

 Calculation completed.
.Delivered    7 WARNINGs and  11 COMMENTs to log file.
+Overall time at end (sec) : cpu=         27.5  wall=         27.5
